HEADER
"PSFversion" "1.00"
"simulator" "spectre"
"version" "15.1.0.284.isr1"
"date" "9:11:11 AM, Sat Sep 14, 2019"
"design" ""
"analysis type" "pnoise"
"analysis name" "pnoiref"
"analysis description" "Periodic Noise Analysis `pnoiref': freq = (4 Hz -> 4.19 MHz)"
"xVecSorted" "ascending"
"tolerance.relative" 0.00100000
"fundamental frequency" 131000.
"sweeptype" "absolute"
"relharmnum" 1
"operating point producer" "pss"
"output" "pair of nodes"
"ground" "0"
"positive output signal" "noiref"
"negative output signal" "0"
TYPE
"sweep" FLOAT DOUBLE PROP(
"key" "sweep"
)
"V/sqrt(Hz)" FLOAT DOUBLE PROP(
"units" "V/sqrt(Hz)"
"key" "noise"
)
"V^2/Hz" FLOAT DOUBLE PROP(
"units" "V^2/Hz"
"key" "noise"
)
"res_va" STRUCT(
"flicker" FLOAT DOUBLE PROP(
"units" "V^2/Hz"
)
"thermal" FLOAT DOUBLE PROP(
"units" "V^2/Hz"
)
"total" FLOAT DOUBLE PROP(
"units" "V^2/Hz"
)
) PROP(
"key" "inst"
"master" "res_va"
)
"resistor" STRUCT(
"rn" FLOAT DOUBLE PROP(
"units" "V^2/Hz"
)
"total" FLOAT DOUBLE PROP(
"units" "V^2/Hz"
)
) PROP(
"key" "inst"
"master" "resistor"
)
"rref" STRUCT(
"rn" FLOAT DOUBLE PROP(
"units" "V^2/Hz"
)
"fn" FLOAT DOUBLE PROP(
"units" "V^2/Hz"
)
"total" FLOAT DOUBLE PROP(
"units" "V^2/Hz"
)
) PROP(
"key" "inst"
"master" "resistor"
)
SWEEP
"freq" "sweep" PROP(
"sweep_direction" 0
"units" "Hz"
"plot" 0
"grid" 3
)
TRACE
"RESva" "res_va"
"Rref" "resistor"
"Rva" "resistor"
"RESref" "rref"
"out" "V/sqrt(Hz)"
VALUE
"freq" 4.000000000000000e+00
"RESva" (
0.000000000000000e+00
0.000000000000000e+00
0.000000000000000e+00
)
"Rref" (
0.000000000000000e+00
0.000000000000000e+00
)
"Rva" (
0.000000000000000e+00
0.000000000000000e+00
)
"RESref" (
1.657575493559971e-22
3.816793896687644e-18
3.816959654237000e-18
)
"out" 1.953704085637587e-09
"freq" 4.488073817207853e+00
"RESva" (
0.000000000000000e+00
0.000000000000000e+00
0.000000000000000e+00
)
"Rref" (
0.000000000000000e+00
0.000000000000000e+00
)
"Rva" (
0.000000000000000e+00
0.000000000000000e+00
)
"RESref" (
1.657575493559971e-22
3.816793897609049e-18
3.816959655158406e-18
)
"out" 1.953704085873397e-09
"freq" 5.035701647176668e+00
"RESva" (
0.000000000000000e+00
0.000000000000000e+00
0.000000000000000e+00
)
"Rref" (
0.000000000000000e+00
0.000000000000000e+00
)
"Rva" (
0.000000000000000e+00
0.000000000000000e+00
)
"RESref" (
1.657575493559971e-22
3.816793898769029e-18
3.816959656318385e-18
)
"out" 1.953704086170264e-09
"freq" 5.650150178491016e+00
"RESva" (
0.000000000000000e+00
0.000000000000000e+00
0.000000000000000e+00
)
"Rref" (
0.000000000000000e+00
0.000000000000000e+00
)
"Rva" (
0.000000000000000e+00
0.000000000000000e+00
)
"RESref" (
1.657575493559971e-22
3.816793900229361e-18
3.816959657778717e-18
)
"out" 1.953704086543998e-09
"freq" 6.339572769844452e+00
"RESva" (
0.000000000000000e+00
0.000000000000000e+00
0.000000000000000e+00
)
"Rref" (
0.000000000000000e+00
0.000000000000000e+00
)
"Rva" (
0.000000000000000e+00
0.000000000000000e+00
)
"RESref" (
1.657575493559971e-22
3.816793902067806e-18
3.816959659617162e-18
)
"out" 1.953704087014500e-09
"freq" 7.113117640155688e+00
"RESva" (
0.000000000000000e+00
0.000000000000000e+00
0.000000000000000e+00
)
"Rref" (
0.000000000000000e+00
0.000000000000000e+00
)
"Rva" (
0.000000000000000e+00
0.000000000000000e+00
)
"RESref" (
1.657575493559971e-22
3.816793904382271e-18
3.816959661931627e-18
)
"out" 1.953704087606828e-09
"freq" 7.981049259875515e+00
"RESva" (
0.000000000000000e+00
0.000000000000000e+00
0.000000000000000e+00
)
"Rref" (
0.000000000000000e+00
0.000000000000000e+00
)
"Rva" (
0.000000000000000e+00
0.000000000000000e+00
)
"RESref" (
1.657575493559971e-22
3.816793907296010e-18
3.816959664845366e-18
)
"out" 1.953704088352524e-09
"freq" 8.954884554273354e+00
"RESva" (
0.000000000000000e+00
0.000000000000000e+00
0.000000000000000e+00
)
"Rref" (
0.000000000000000e+00
0.000000000000000e+00
)
"Rva" (
0.000000000000000e+00
0.000000000000000e+00
)
"RESref" (
1.657575493559971e-22
3.816793910964192e-18
3.816959668513548e-18
)
"out" 1.953704089291300e-09
"freq" 1.004754572603832e+01
"RESva" (
0.000000000000000e+00
0.000000000000000e+00
0.000000000000000e+00
)
"Rref" (
0.000000000000000e+00
0.000000000000000e+00
)
"Rva" (
0.000000000000000e+00
0.000000000000000e+00
)
"RESref" (
1.657575493559971e-22
3.816793915582157e-18
3.816959673131513e-18
)
"out" 1.953704090473149e-09
"freq" 1.127353172505781e+01
"RESva" (
0.000000000000000e+00
0.000000000000000e+00
0.000000000000000e+00
)
"Rref" (
0.000000000000000e+00
0.000000000000000e+00
)
"Rva" (
0.000000000000000e+00
0.000000000000000e+00
)
"RESref" (
1.657575493559971e-22
3.816793921395834e-18
3.816959678945190e-18
)
"out" 1.953704091961009e-09
"freq" 1.264911064067351e+01
"RESva" (
0.000000000000000e+00
0.000000000000000e+00
0.000000000000000e+00
)
"Rref" (
0.000000000000000e+00
0.000000000000000e+00
)
"Rva" (
0.000000000000000e+00
0.000000000000000e+00
)
"RESref" (
1.657575493559971e-22
3.816793928714818e-18
3.816959686264174e-18
)
"out" 1.953704093834113e-09
"freq" 1.419253556934301e+01
"RESva" (
0.000000000000000e+00
0.000000000000000e+00
0.000000000000000e+00
)
"Rref" (
0.000000000000000e+00
0.000000000000000e+00
)
"Rva" (
0.000000000000000e+00
0.000000000000000e+00
)
"RESref" (
1.657575493559971e-22
3.816793937928874e-18
3.816959695478230e-18
)
"out" 1.953704096192212e-09
"freq" 1.592428682213987e+01
"RESva" (
0.000000000000000e+00
0.000000000000000e+00
0.000000000000000e+00
)
"Rref" (
0.000000000000000e+00
0.000000000000000e+00
)
"Rva" (
0.000000000000000e+00
0.000000000000000e+00
)
"RESref" (
1.657575493559971e-22
3.816793949528681e-18
3.816959707078037e-18
)
"out" 1.953704099160883e-09
"freq" 1.786734368603851e+01
"RESva" (
0.000000000000000e+00
0.000000000000000e+00
0.000000000000000e+00
)
"Rref" (
0.000000000000000e+00
0.000000000000000e+00
)
"Rva" (
0.000000000000000e+00
0.000000000000000e+00
)
"RESref" (
1.657575493559971e-22
3.816793964131973e-18
3.816959721681329e-18
)
"out" 1.953704102898218e-09
"freq" 2.004748934509087e+01
"RESva" (
0.000000000000000e+00
0.000000000000000e+00
0.000000000000000e+00
)
"Rref" (
0.000000000000000e+00
0.000000000000000e+00
)
"Rva" (
0.000000000000000e+00
0.000000000000000e+00
)
"RESref" (
1.657575493559971e-22
3.816793982516431e-18
3.816959740065787e-18
)
"out" 1.953704107603244e-09
"freq" 2.249365300761394e+01
"RESva" (
0.000000000000000e+00
0.000000000000000e+00
0.000000000000000e+00
)
"Rref" (
0.000000000000000e+00
0.000000000000000e+00
)
"Rva" (
0.000000000000000e+00
0.000000000000000e+00
)
"RESref" (
1.657575493559971e-22
3.816794005661090e-18
3.816959763210446e-18
)
"out" 1.953704113526520e-09
"freq" 2.523829377920770e+01
"RESva" (
0.000000000000000e+00
0.000000000000000e+00
0.000000000000000e+00
)
"Rref" (
0.000000000000000e+00
0.000000000000000e+00
)
"Rva" (
0.000000000000000e+00
0.000000000000000e+00
)
"RESref" (
1.657575493559971e-22
3.816794034798491e-18
3.816959792347847e-18
)
"out" 1.953704120983484e-09
"freq" 2.831783137536548e+01
"RESva" (
0.000000000000000e+00
0.000000000000000e+00
0.000000000000000e+00
)
"Rref" (
0.000000000000000e+00
0.000000000000000e+00
)
"Rva" (
0.000000000000000e+00
0.000000000000000e+00
)
"RESref" (
1.657575493559971e-22
3.816794071480305e-18
3.816959829029661e-18
)
"out" 1.953704130371245e-09
"freq" 3.177312938897122e+01
"RESva" (
0.000000000000000e+00
0.000000000000000e+00
0.000000000000000e+00
)
"Rref" (
0.000000000000000e+00
0.000000000000000e+00
)
"Rva" (
0.000000000000000e+00
0.000000000000000e+00
)
"RESref" (
1.657575493559971e-22
3.816794117659975e-18
3.816959875209331e-18
)
"out" 1.953704142189735e-09
"freq" 3.565003752534977e+01
"RESva" (
0.000000000000000e+00
0.000000000000000e+00
0.000000000000000e+00
)
"Rref" (
0.000000000000000e+00
0.000000000000000e+00
)
"Rva" (
0.000000000000000e+00
0.000000000000000e+00
)
"RESref" (
1.657575493559971e-22
3.816794175796736e-18
3.816959933346092e-18
)
"out" 1.953704157068335e-09
"freq" 3.999999999999994e+01
"RESva" (
0.000000000000000e+00
0.000000000000000e+00
0.000000000000000e+00
)
"Rref" (
0.000000000000000e+00
0.000000000000000e+00
)
"Rva" (
0.000000000000000e+00
0.000000000000000e+00
)
"RESref" (
1.657575493559971e-22
3.816794248986585e-18
3.816960006535941e-18
)
"out" 1.953704175799382e-09
"freq" 4.488073817207846e+01
"RESva" (
0.000000000000000e+00
0.000000000000000e+00
0.000000000000000e+00
)
"Rref" (
0.000000000000000e+00
0.000000000000000e+00
)
"Rva" (
0.000000000000000e+00
0.000000000000000e+00
)
"RESref" (
1.657575493559971e-22
3.816794341127147e-18
3.816960098676503e-18
)
"out" 1.953704199380373e-09
"freq" 5.035701647176660e+01
"RESva" (
0.000000000000000e+00
0.000000000000000e+00
0.000000000000000e+00
)
"Rref" (
0.000000000000000e+00
0.000000000000000e+00
)
"Rva" (
0.000000000000000e+00
0.000000000000000e+00
)
"RESref" (
1.657575493559971e-22
3.816794457125251e-18
3.816960214674607e-18
)
"out" 1.953704229067083e-09
"freq" 5.650150178491007e+01
"RESva" (
0.000000000000000e+00
0.000000000000000e+00
0.000000000000000e+00
)
"Rref" (
0.000000000000000e+00
0.000000000000000e+00
)
"Rva" (
0.000000000000000e+00
0.000000000000000e+00
)
"RESref" (
1.657575493559971e-22
3.816794603158222e-18
3.816960360707578e-18
)
"out" 1.953704266440440e-09
"freq" 6.339572769844442e+01
"RESva" (
0.000000000000000e+00
0.000000000000000e+00
0.000000000000000e+00
)
"Rref" (
0.000000000000000e+00
0.000000000000000e+00
)
"Rva" (
0.000000000000000e+00
0.000000000000000e+00
)
"RESref" (
1.657575493559971e-22
3.816794787002858e-18
3.816960544552214e-18
)
"out" 1.953704313490712e-09
"freq" 7.113117640155677e+01
"RESva" (
0.000000000000000e+00
0.000000000000000e+00
0.000000000000000e+00
)
"Rref" (
0.000000000000000e+00
0.000000000000000e+00
)
"Rva" (
0.000000000000000e+00
0.000000000000000e+00
)
"RESref" (
1.657575493559971e-22
3.816795018449563e-18
3.816960775998920e-18
)
"out" 1.953704372723499e-09
"freq" 7.981049259875502e+01
"RESva" (
0.000000000000000e+00
0.000000000000000e+00
0.000000000000000e+00
)
"Rref" (
0.000000000000000e+00
0.000000000000000e+00
)
"Rva" (
0.000000000000000e+00
0.000000000000000e+00
)
"RESref" (
1.657575493559971e-22
3.816795309823742e-18
3.816961067373098e-18
)
"out" 1.953704447293167e-09
"freq" 8.954884554273339e+01
"RESva" (
0.000000000000000e+00
0.000000000000000e+00
0.000000000000000e+00
)
"Rref" (
0.000000000000000e+00
0.000000000000000e+00
)
"Rva" (
0.000000000000000e+00
0.000000000000000e+00
)
"RESref" (
1.657575493559971e-22
3.816795676642168e-18
3.816961434191524e-18
)
"out" 1.953704541170830e-09
"freq" 1.004754572603830e+02
"RESva" (
0.000000000000000e+00
0.000000000000000e+00
0.000000000000000e+00
)
"Rref" (
0.000000000000000e+00
0.000000000000000e+00
)
"Rva" (
0.000000000000000e+00
0.000000000000000e+00
)
"RESref" (
1.657575493559971e-22
3.816796138439302e-18
3.816961895988658e-18
)
"out" 1.953704659355824e-09
"freq" 1.127353172505779e+02
"RESva" (
0.000000000000000e+00
0.000000000000000e+00
0.000000000000000e+00
)
"Rref" (
0.000000000000000e+00
0.000000000000000e+00
)
"Rva" (
0.000000000000000e+00
0.000000000000000e+00
)
"RESref" (
1.657575493559971e-22
3.816796719807608e-18
3.816962477356965e-18
)
"out" 1.953704808141948e-09
"freq" 1.264911064067349e+02
"RESva" (
0.000000000000000e+00
0.000000000000000e+00
0.000000000000000e+00
)
"Rref" (
0.000000000000000e+00
0.000000000000000e+00
)
"Rva" (
0.000000000000000e+00
0.000000000000000e+00
)
"RESref" (
1.657575493559971e-22
3.816797451707197e-18
3.816963209256553e-18
)
"out" 1.953704995452628e-09
"freq" 1.419253556934298e+02
"RESva" (
0.000000000000000e+00
0.000000000000000e+00
0.000000000000000e+00
)
"Rref" (
0.000000000000000e+00
0.000000000000000e+00
)
"Rva" (
0.000000000000000e+00
0.000000000000000e+00
)
"RESref" (
1.657575493559971e-22
3.816798373114585e-18
3.816964130663941e-18
)
"out" 1.953705231262879e-09
"freq" 1.592428682213985e+02
"RESva" (
0.000000000000000e+00
0.000000000000000e+00
0.000000000000000e+00
)
"Rref" (
0.000000000000000e+00
0.000000000000000e+00
)
"Rva" (
0.000000000000000e+00
0.000000000000000e+00
)
"RESref" (
1.657575493559971e-22
3.816799533098393e-18
3.816965290647749e-18
)
"out" 1.953705528130519e-09
"freq" 1.786734368603848e+02
"RESva" (
0.000000000000000e+00
0.000000000000000e+00
0.000000000000000e+00
)
"Rref" (
0.000000000000000e+00
0.000000000000000e+00
)
"Rva" (
0.000000000000000e+00
0.000000000000000e+00
)
"RESref" (
1.657575493559971e-22
3.816800993432489e-18
3.816966750981845e-18
)
"out" 1.953705901864926e-09
"freq" 2.004748934509084e+02
"RESva" (
0.000000000000000e+00
0.000000000000000e+00
0.000000000000000e+00
)
"Rref" (
0.000000000000000e+00
0.000000000000000e+00
)
"Rva" (
0.000000000000000e+00
0.000000000000000e+00
)
"RESref" (
1.657575493559971e-22
3.816802831885781e-18
3.816968589435137e-18
)
"out" 1.953706372368974e-09
"freq" 2.249365300761390e+02
"RESva" (
0.000000000000000e+00
0.000000000000000e+00
0.000000000000000e+00
)
"Rref" (
0.000000000000000e+00
0.000000000000000e+00
)
"Rva" (
0.000000000000000e+00
0.000000000000000e+00
)
"RESref" (
1.657575493559971e-22
3.816805146363868e-18
3.816970903913224e-18
)
"out" 1.953706964698960e-09
"freq" 2.523829377920765e+02
"RESva" (
0.000000000000000e+00
0.000000000000000e+00
0.000000000000000e+00
)
"Rref" (
0.000000000000000e+00
0.000000000000000e+00
)
"Rva" (
0.000000000000000e+00
0.000000000000000e+00
)
"RESref" (
1.657575493559971e-22
3.816808060123137e-18
3.816973817672493e-18
)
"out" 1.953707710398997e-09
"freq" 2.831783137536543e+02
"RESva" (
0.000000000000000e+00
0.000000000000000e+00
0.000000000000000e+00
)
"Rref" (
0.000000000000000e+00
0.000000000000000e+00
)
"Rva" (
0.000000000000000e+00
0.000000000000000e+00
)
"RESref" (
1.657575493559971e-22
3.816811728335050e-18
3.816977485884406e-18
)
"out" 1.953708649180938e-09
"freq" 3.177312938897117e+02
"RESva" (
0.000000000000000e+00
0.000000000000000e+00
0.000000000000000e+00
)
"Rref" (
0.000000000000000e+00
0.000000000000000e+00
)
"Rva" (
0.000000000000000e+00
0.000000000000000e+00
)
"RESref" (
1.657575493559971e-22
3.816816346350268e-18
3.816982103899624e-18
)
"out" 1.953709831039304e-09
"freq" 3.565003752534971e+02
"RESva" (
0.000000000000000e+00
0.000000000000000e+00
0.000000000000000e+00
)
"Rref" (
0.000000000000000e+00
0.000000000000000e+00
)
"Rva" (
0.000000000000000e+00
0.000000000000000e+00
)
"RESref" (
1.657575493559971e-22
3.816822160102870e-18
3.816987917652226e-18
)
"out" 1.953711318913884e-09
"freq" 3.999999999999987e+02
"RESva" (
0.000000000000000e+00
0.000000000000000e+00
0.000000000000000e+00
)
"Rref" (
0.000000000000000e+00
0.000000000000000e+00
)
"Rva" (
0.000000000000000e+00
0.000000000000000e+00
)
"RESref" (
1.657575493559971e-22
3.816829479208941e-18
3.816995236758297e-18
)
"out" 1.953713192041835e-09
"freq" 4.488073817207840e+02
"RESva" (
0.000000000000000e+00
0.000000000000000e+00
0.000000000000000e+00
)
"Rref" (
0.000000000000000e+00
0.000000000000000e+00
)
"Rva" (
0.000000000000000e+00
0.000000000000000e+00
)
"RESref" (
1.657575493559971e-22
3.816838693457479e-18
3.817004451006835e-18
)
"out" 1.953715550177874e-09
"freq" 5.035701647176653e+02
"RESva" (
0.000000000000000e+00
0.000000000000000e+00
0.000000000000000e+00
)
"Rref" (
0.000000000000000e+00
0.000000000000000e+00
)
"Rva" (
0.000000000000000e+00
0.000000000000000e+00
)
"RESref" (
1.657575493559971e-22
3.816850293572372e-18
3.817016051121729e-18
)
"out" 1.953718518907401e-09
"freq" 5.650150178490999e+02
"RESva" (
0.000000000000000e+00
0.000000000000000e+00
0.000000000000000e+00
)
"Rref" (
0.000000000000000e+00
0.000000000000000e+00
)
"Rva" (
0.000000000000000e+00
0.000000000000000e+00
)
"RESref" (
1.657575493559971e-22
3.816864897352051e-18
3.817030654901407e-18
)
"out" 1.953722256335687e-09
"freq" 6.339572769844433e+02
"RESva" (
0.000000000000000e+00
0.000000000000000e+00
0.000000000000000e+00
)
"Rref" (
0.000000000000000e+00
0.000000000000000e+00
)
"Rva" (
0.000000000000000e+00
0.000000000000000e+00
)
"RESref" (
1.657575493559971e-22
3.816883282580297e-18
3.817049040129653e-18
)
"out" 1.953726961509630e-09
"freq" 7.113117640155667e+02
"RESva" (
0.000000000000000e+00
0.000000000000000e+00
0.000000000000000e+00
)
"Rref" (
0.000000000000000e+00
0.000000000000000e+00
)
"Rva" (
0.000000000000000e+00
0.000000000000000e+00
)
"RESref" (
1.657575493559971e-22
3.816906428463186e-18
3.817072186012542e-18
)
"out" 1.953732885021016e-09
"freq" 7.981049259875491e+02
"RESva" (
0.000000000000000e+00
0.000000000000000e+00
0.000000000000000e+00
)
"Rref" (
0.000000000000000e+00
0.000000000000000e+00
)
"Rva" (
0.000000000000000e+00
0.000000000000000e+00
)
"RESref" (
1.657575493559971e-22
3.816935567802489e-18
3.817101325351845e-18
)
"out" 1.953740342356641e-09
"freq" 8.954884554273327e+02
"RESva" (
0.000000000000000e+00
0.000000000000000e+00
0.000000000000000e+00
)
"Rref" (
0.000000000000000e+00
0.000000000000000e+00
)
"Rva" (
0.000000000000000e+00
0.000000000000000e+00
)
"RESref" (
1.657575493559971e-22
3.816972252689856e-18
3.817138010239212e-18
)
"out" 1.953749730707393e-09
"freq" 1.004754572603828e+03
"RESva" (
0.000000000000000e+00
0.000000000000000e+00
0.000000000000000e+00
)
"Rref" (
0.000000000000000e+00
0.000000000000000e+00
)
"Rva" (
0.000000000000000e+00
0.000000000000000e+00
)
"RESref" (
1.657575493559971e-22
3.817018437229481e-18
3.817184194778837e-18
)
"out" 1.953761550133188e-09
"freq" 1.127353172505777e+03
"RESva" (
0.000000000000000e+00
0.000000000000000e+00
0.000000000000000e+00
)
"Rref" (
0.000000000000000e+00
0.000000000000000e+00
)
"Rva" (
0.000000000000000e+00
0.000000000000000e+00
)
"RESref" (
1.657575493559971e-22
3.817076581709264e-18
3.817242339258621e-18
)
"out" 1.953776430213708e-09
"freq" 1.264911064067347e+03
"RESva" (
0.000000000000000e+00
0.000000000000000e+00
0.000000000000000e+00
)
"Rref" (
0.000000000000000e+00
0.000000000000000e+00
)
"Rva" (
0.000000000000000e+00
0.000000000000000e+00
)
"RESref" (
1.657575493559971e-22
3.817149783791272e-18
3.817315541340628e-18
)
"out" 1.953795163608670e-09
"freq" 1.419253556934297e+03
"RESva" (
0.000000000000000e+00
0.000000000000000e+00
0.000000000000000e+00
)
"Rref" (
0.000000000000000e+00
0.000000000000000e+00
)
"Rva" (
0.000000000000000e+00
0.000000000000000e+00
)
"RESref" (
1.657575493559971e-22
3.817241943744857e-18
3.817407701294213e-18
)
"out" 1.953818748321915e-09
"freq" 1.592428682213983e+03
"RESva" (
0.000000000000000e+00
0.000000000000000e+00
0.000000000000000e+00
)
"Rref" (
0.000000000000000e+00
0.000000000000000e+00
)
"Rva" (
0.000000000000000e+00
0.000000000000000e+00
)
"RESref" (
1.657575493559971e-22
3.817357972580283e-18
3.817523730129639e-18
)
"out" 1.953848440931292e-09
"freq" 1.786734368603845e+03
"RESva" (
0.000000000000000e+00
0.000000000000000e+00
0.000000000000000e+00
)
"Rref" (
0.000000000000000e+00
0.000000000000000e+00
)
"Rva" (
0.000000000000000e+00
0.000000000000000e+00
)
"RESref" (
1.657575493559971e-22
3.817504054259700e-18
3.817669811809056e-18
)
"out" 1.953885823636851e-09
"freq" 2.004748934509081e+03
"RESva" (
0.000000000000000e+00
0.000000000000000e+00
0.000000000000000e+00
)
"Rref" (
0.000000000000000e+00
0.000000000000000e+00
)
"Rva" (
0.000000000000000e+00
0.000000000000000e+00
)
"RESref" (
1.657575493559971e-22
3.817687976096440e-18
3.817853733645796e-18
)
"out" 1.953932888726170e-09
"freq" 2.249365300761387e+03
"RESva" (
0.000000000000000e+00
0.000000000000000e+00
0.000000000000000e+00
)
"Rref" (
0.000000000000000e+00
0.000000000000000e+00
)
"Rva" (
0.000000000000000e+00
0.000000000000000e+00
)
"RESref" (
1.657575493559971e-22
3.817919545171353e-18
3.818085302720709e-18
)
"out" 1.953992144999746e-09
"freq" 2.523829377920762e+03
"RESva" (
0.000000000000000e+00
0.000000000000000e+00
0.000000000000000e+00
)
"Rref" (
0.000000000000000e+00
0.000000000000000e+00
)
"Rva" (
0.000000000000000e+00
0.000000000000000e+00
)
"RESref" (
1.657575493559971e-22
3.818211113312413e-18
3.818376870861769e-18
)
"out" 1.954066751895075e-09
"freq" 2.831783137536539e+03
"RESva" (
0.000000000000000e+00
0.000000000000000e+00
0.000000000000000e+00
)
"Rref" (
0.000000000000000e+00
0.000000000000000e+00
)
"Rva" (
0.000000000000000e+00
0.000000000000000e+00
)
"RESref" (
1.657575493559971e-22
3.818578239182641e-18
3.818743996731997e-18
)
"out" 1.954160688564786e-09
"freq" 3.177312938897112e+03
"RESva" (
0.000000000000000e+00
0.000000000000000e+00
0.000000000000000e+00
)
"Rref" (
0.000000000000000e+00
0.000000000000000e+00
)
"Rva" (
0.000000000000000e+00
0.000000000000000e+00
)
"RESref" (
1.657575493559971e-22
3.819040523667874e-18
3.819206281217230e-18
)
"out" 1.954278967091758e-09
"freq" 3.565003752534966e+03
"RESva" (
0.000000000000000e+00
0.000000000000000e+00
0.000000000000000e+00
)
"Rref" (
0.000000000000000e+00
0.000000000000000e+00
)
"Rva" (
0.000000000000000e+00
0.000000000000000e+00
)
"RESref" (
1.657575493559971e-22
3.819622664532536e-18
3.819788422081892e-18
)
"out" 1.954427901479584e-09
"freq" 3.999999999999982e+03
"RESva" (
0.000000000000000e+00
0.000000000000000e+00
0.000000000000000e+00
)
"Rref" (
0.000000000000000e+00
0.000000000000000e+00
)
"Rva" (
0.000000000000000e+00
0.000000000000000e+00
)
"RESref" (
1.657575493559971e-22
3.820355788859023e-18
3.820521546408379e-18
)
"out" 1.954615447193739e-09
"freq" 4.488073817207833e+03
"RESva" (
0.000000000000000e+00
0.000000000000000e+00
0.000000000000000e+00
)
"Rref" (
0.000000000000000e+00
0.000000000000000e+00
)
"Rva" (
0.000000000000000e+00
0.000000000000000e+00
)
"RESref" (
1.657575493559971e-22
3.821279137963137e-18
3.821444895512493e-18
)
"out" 1.954851630050857e-09
"freq" 5.035701647176645e+03
"RESva" (
0.000000000000000e+00
0.000000000000000e+00
0.000000000000000e+00
)
"Rref" (
0.000000000000000e+00
0.000000000000000e+00
)
"Rva" (
0.000000000000000e+00
0.000000000000000e+00
)
"RESref" (
1.657575493559971e-22
3.822442200451088e-18
3.822607958000444e-18
)
"out" 1.955149088433014e-09
"freq" 5.650150178490990e+03
"RESva" (
0.000000000000000e+00
0.000000000000000e+00
0.000000000000000e+00
)
"Rref" (
0.000000000000000e+00
0.000000000000000e+00
)
"Rva" (
0.000000000000000e+00
0.000000000000000e+00
)
"RESref" (
1.657575493559971e-22
3.823907416456600e-18
3.824073174005956e-18
)
"out" 1.955523759509446e-09
"freq" 6.339572769844423e+03
"RESva" (
0.000000000000000e+00
0.000000000000000e+00
0.000000000000000e+00
)
"Rref" (
0.000000000000000e+00
0.000000000000000e+00
)
"Rva" (
0.000000000000000e+00
0.000000000000000e+00
)
"RESref" (
1.657575493559971e-22
3.825753612109134e-18
3.825919369658490e-18
)
"out" 1.955995748885587e-09
"freq" 7.113117640155655e+03
"RESva" (
0.000000000000000e+00
0.000000000000000e+00
0.000000000000000e+00
)
"Rref" (
0.000000000000000e+00
0.000000000000000e+00
)
"Rva" (
0.000000000000000e+00
0.000000000000000e+00
)
"RESref" (
1.657575493559971e-22
3.828080371109503e-18
3.828246128658860e-18
)
"out" 1.956590434572054e-09
"freq" 7.981049259875477e+03
"RESva" (
0.000000000000000e+00
0.000000000000000e+00
0.000000000000000e+00
)
"Rref" (
0.000000000000000e+00
0.000000000000000e+00
)
"Rva" (
0.000000000000000e+00
0.000000000000000e+00
)
"RESref" (
1.657575493559971e-22
3.831013614501214e-18
3.831179372050570e-18
)
"out" 1.957339871368938e-09
"freq" 8.954884554273311e+03
"RESva" (
0.000000000000000e+00
0.000000000000000e+00
0.000000000000000e+00
)
"Rref" (
0.000000000000000e+00
0.000000000000000e+00
)
"Rva" (
0.000000000000000e+00
0.000000000000000e+00
)
"RESref" (
1.657575493559971e-22
3.834712747027447e-18
3.834878504576803e-18
)
"out" 1.958284582122017e-09
"freq" 1.004754572603827e+04
"RESva" (
0.000000000000000e+00
0.000000000000000e+00
0.000000000000000e+00
)
"Rref" (
0.000000000000000e+00
0.000000000000000e+00
)
"Rva" (
0.000000000000000e+00
0.000000000000000e+00
)
"RESref" (
1.657575493559971e-22
3.839379848855514e-18
3.839545606404870e-18
)
"out" 1.959475849916214e-09
"freq" 1.127353172505775e+04
"RESva" (
0.000000000000000e+00
0.000000000000000e+00
0.000000000000000e+00
)
"Rref" (
0.000000000000000e+00
0.000000000000000e+00
)
"Rva" (
0.000000000000000e+00
0.000000000000000e+00
)
"RESref" (
1.657575493559971e-22
3.845271560121781e-18
3.845437317671137e-18
)
"out" 1.960978663237093e-09
"freq" 1.264911064067345e+04
"RESva" (
0.000000000000000e+00
0.000000000000000e+00
0.000000000000000e+00
)
"Rref" (
0.000000000000000e+00
0.000000000000000e+00
)
"Rva" (
0.000000000000000e+00
0.000000000000000e+00
)
"RESref" (
1.657575493559971e-22
3.852714546202456e-18
3.852880303751812e-18
)
"out" 1.962875519168705e-09
"freq" 1.419253556934294e+04
"RESva" (
0.000000000000000e+00
0.000000000000000e+00
0.000000000000000e+00
)
"Rref" (
0.000000000000000e+00
0.000000000000000e+00
)
"Rva" (
0.000000000000000e+00
0.000000000000000e+00
)
"RESref" (
1.657575493559971e-22
3.862125780913107e-18
3.862291538462464e-18
)
"out" 1.965271365095025e-09
"freq" 1.592428682213980e+04
"RESva" (
0.000000000000000e+00
0.000000000000000e+00
0.000000000000000e+00
)
"Rref" (
0.000000000000000e+00
0.000000000000000e+00
)
"Rva" (
0.000000000000000e+00
0.000000000000000e+00
)
"RESref" (
1.657575493559971e-22
3.874039402612448e-18
3.874205160161804e-18
)
"out" 1.968300068628207e-09
"freq" 1.786734368603842e+04
"RESva" (
0.000000000000000e+00
0.000000000000000e+00
0.000000000000000e+00
)
"Rref" (
0.000000000000000e+00
0.000000000000000e+00
)
"Rva" (
0.000000000000000e+00
0.000000000000000e+00
)
"RESref" (
1.657575493559971e-22
3.889142682423650e-18
3.889308439973006e-18
)
"out" 1.972132967112767e-09
"freq" 2.004748934509077e+04
"RESva" (
0.000000000000000e+00
0.000000000000000e+00
0.000000000000000e+00
)
"Rref" (
0.000000000000000e+00
0.000000000000000e+00
)
"Rva" (
0.000000000000000e+00
0.000000000000000e+00
)
"RESref" (
1.657575493559971e-22
3.908324859239246e-18
3.908490616788602e-18
)
"out" 1.976990292537776e-09
"freq" 2.249365300761383e+04
"RESva" (
0.000000000000000e+00
0.000000000000000e+00
0.000000000000000e+00
)
"Rref" (
0.000000000000000e+00
0.000000000000000e+00
)
"Rva" (
0.000000000000000e+00
0.000000000000000e+00
)
"RESref" (
1.657575493559971e-22
3.932744526872832e-18
3.932910284422188e-18
)
"out" 1.983156646465979e-09
"freq" 2.523829377920758e+04
"RESva" (
0.000000000000000e+00
0.000000000000000e+00
0.000000000000000e+00
)
"Rref" (
0.000000000000000e+00
0.000000000000000e+00
)
"Rva" (
0.000000000000000e+00
0.000000000000000e+00
)
"RESref" (
1.657575493559971e-22
3.963924408173738e-18
3.964090165723095e-18
)
"out" 1.991002301787493e-09
"freq" 2.831783137536535e+04
"RESva" (
0.000000000000000e+00
0.000000000000000e+00
0.000000000000000e+00
)
"Rref" (
0.000000000000000e+00
0.000000000000000e+00
)
"Rva" (
0.000000000000000e+00
0.000000000000000e+00
)
"RESref" (
1.657575493559971e-22
4.003887640123574e-18
4.004053397672930e-18
)
"out" 2.001013092828962e-09
"freq" 3.177312938897107e+04
"RESva" (
0.000000000000000e+00
0.000000000000000e+00
0.000000000000000e+00
)
"Rref" (
0.000000000000000e+00
0.000000000000000e+00
)
"Rva" (
0.000000000000000e+00
0.000000000000000e+00
)
"RESref" (
1.657575493559971e-22
4.055358868363305e-18
4.055524625912661e-18
)
"out" 2.013833316318076e-09
"freq" 3.565003752534960e+04
"RESva" (
0.000000000000000e+00
0.000000000000000e+00
0.000000000000000e+00
)
"Rref" (
0.000000000000000e+00
0.000000000000000e+00
)
"Rva" (
0.000000000000000e+00
0.000000000000000e+00
)
"RESref" (
1.657575493559971e-22
4.122069953958917e-18
4.122235711508273e-18
)
"out" 2.030328966327446e-09
"freq" 3.999999999999975e+04
"RESva" (
0.000000000000000e+00
0.000000000000000e+00
0.000000000000000e+00
)
"Rref" (
0.000000000000000e+00
0.000000000000000e+00
)
"Rva" (
0.000000000000000e+00
0.000000000000000e+00
)
"RESref" (
1.657575493559971e-22
4.209241051345536e-18
4.209406808894893e-18
)
"out" 2.051683895948616e-09
"freq" 4.488073817207826e+04
"RESva" (
0.000000000000000e+00
0.000000000000000e+00
0.000000000000000e+00
)
"Rref" (
0.000000000000000e+00
0.000000000000000e+00
)
"Rva" (
0.000000000000000e+00
0.000000000000000e+00
)
"RESref" (
1.657575493559971e-22
4.324368764272898e-18
4.324534521822254e-18
)
"out" 2.079551519396010e-09
"freq" 5.035701647176637e+04
"RESva" (
0.000000000000000e+00
0.000000000000000e+00
0.000000000000000e+00
)
"Rref" (
0.000000000000000e+00
0.000000000000000e+00
)
"Rva" (
0.000000000000000e+00
0.000000000000000e+00
)
"RESref" (
1.657575493559971e-22
4.478580146748085e-18
4.478745904297441e-18
)
"out" 2.116304775852817e-09
"freq" 5.650150178490981e+04
"RESva" (
0.000000000000000e+00
0.000000000000000e+00
0.000000000000000e+00
)
"Rref" (
0.000000000000000e+00
0.000000000000000e+00
)
"Rva" (
0.000000000000000e+00
0.000000000000000e+00
)
"RESref" (
1.657575493559971e-22
4.689094998330693e-18
4.689260755880049e-18
)
"out" 2.165470100435480e-09
"freq" 6.339572769844413e+04
"RESva" (
0.000000000000000e+00
0.000000000000000e+00
0.000000000000000e+00
)
"Rref" (
0.000000000000000e+00
0.000000000000000e+00
)
"Rva" (
0.000000000000000e+00
0.000000000000000e+00
)
"RESref" (
1.657575493559971e-22
4.984027633535470e-18
4.984193391084826e-18
)
"out" 2.232530714477368e-09
"freq" 7.113117640155645e+04
"RESva" (
0.000000000000000e+00
0.000000000000000e+00
0.000000000000000e+00
)
"Rref" (
0.000000000000000e+00
0.000000000000000e+00
)
"Rva" (
0.000000000000000e+00
0.000000000000000e+00
)
"RESref" (
1.657575493559971e-22
5.412616684202637e-18
5.412782441751993e-18
)
"out" 2.326538725607634e-09
"freq" 7.981049259875466e+04
"RESva" (
0.000000000000000e+00
0.000000000000000e+00
0.000000000000000e+00
)
"Rref" (
0.000000000000000e+00
0.000000000000000e+00
)
"Rva" (
0.000000000000000e+00
0.000000000000000e+00
)
"RESref" (
1.657575493559971e-22
6.069712583276320e-18
6.069878340825677e-18
)
"out" 2.463712308859473e-09
"freq" 8.954884554273299e+04
"RESva" (
0.000000000000000e+00
0.000000000000000e+00
0.000000000000000e+00
)
"Rref" (
0.000000000000000e+00
0.000000000000000e+00
)
"Rva" (
0.000000000000000e+00
0.000000000000000e+00
)
"RESref" (
1.657575493559971e-22
7.164730853660554e-18
7.164896611209910e-18
)
"out" 2.676732450434655e-09
"freq" 1.004754572603825e+05
"RESva" (
0.000000000000000e+00
0.000000000000000e+00
0.000000000000000e+00
)
"Rref" (
0.000000000000000e+00