HEADER
"PSFversion" "1.00"
"simulator" "spectre"
"version" "15.1.0.284.isr1"
"date" "9:11:11 AM, Sat Sep 14, 2019"
"design" ""
"analysis type" "pnoise"
"analysis name" "pnoiva"
"analysis description" "Periodic Noise Analysis `pnoiva': freq = (4 Hz -> 4.19 MHz)"
"xVecSorted" "ascending"
"tolerance.relative" 0.00100000
"fundamental frequency" 131000.
"sweeptype" "absolute"
"relharmnum" 1
"operating point producer" "pss"
"output" "pair of nodes"
"ground" "0"
"positive output signal" "noiva"
"negative output signal" "0"
TYPE
"sweep" FLOAT DOUBLE PROP(
"key" "sweep"
)
"V/sqrt(Hz)" FLOAT DOUBLE PROP(
"units" "V/sqrt(Hz)"
"key" "noise"
)
"V^2/Hz" FLOAT DOUBLE PROP(
"units" "V^2/Hz"
"key" "noise"
)
"res_va" STRUCT(
"flicker" FLOAT DOUBLE PROP(
"units" "V^2/Hz"
)
"thermal" FLOAT DOUBLE PROP(
"units" "V^2/Hz"
)
"total" FLOAT DOUBLE PROP(
"units" "V^2/Hz"
)
) PROP(
"key" "inst"
"master" "res_va"
)
"resistor" STRUCT(
"rn" FLOAT DOUBLE PROP(
"units" "V^2/Hz"
)
"total" FLOAT DOUBLE PROP(
"units" "V^2/Hz"
)
) PROP(
"key" "inst"
"master" "resistor"
)
"rref" STRUCT(
"rn" FLOAT DOUBLE PROP(
"units" "V^2/Hz"
)
"fn" FLOAT DOUBLE PROP(
"units" "V^2/Hz"
)
"total" FLOAT DOUBLE PROP(
"units" "V^2/Hz"
)
) PROP(
"key" "inst"
"master" "resistor"
)
SWEEP
"freq" "sweep" PROP(
"sweep_direction" 0
"units" "Hz"
"plot" 0
"grid" 3
)
TRACE
"RESva" "res_va"
"Rref" "resistor"
"Rva" "resistor"
"RESref" "rref"
"out" "V/sqrt(Hz)"
VALUE
"freq" 4.000000000000000e+00
"RESva" (
3.816793896687641e-18
1.657575493560014e-22
3.816959654236998e-18
)
"Rref" (
0.000000000000000e+00
0.000000000000000e+00
)
"Rva" (
0.000000000000000e+00
0.000000000000000e+00
)
"RESref" (
0.000000000000000e+00
0.000000000000000e+00
0.000000000000000e+00
)
"out" 1.953704085637587e-09
"freq" 4.488073817207853e+00
"RESva" (
3.816793897609049e-18
1.657575493560014e-22
3.816959655158405e-18
)
"Rref" (
0.000000000000000e+00
0.000000000000000e+00
)
"Rva" (
0.000000000000000e+00
0.000000000000000e+00
)
"RESref" (
0.000000000000000e+00
0.000000000000000e+00
0.000000000000000e+00
)
"out" 1.953704085873397e-09
"freq" 5.035701647176668e+00
"RESva" (
3.816793898769029e-18
1.657575493560014e-22
3.816959656318385e-18
)
"Rref" (
0.000000000000000e+00
0.000000000000000e+00
)
"Rva" (
0.000000000000000e+00
0.000000000000000e+00
)
"RESref" (
0.000000000000000e+00
0.000000000000000e+00
0.000000000000000e+00
)
"out" 1.953704086170264e-09
"freq" 5.650150178491016e+00
"RESva" (
3.816793900229359e-18
1.657575493560014e-22
3.816959657778715e-18
)
"Rref" (
0.000000000000000e+00
0.000000000000000e+00
)
"Rva" (
0.000000000000000e+00
0.000000000000000e+00
)
"RESref" (
0.000000000000000e+00
0.000000000000000e+00
0.000000000000000e+00
)
"out" 1.953704086543997e-09
"freq" 6.339572769844452e+00
"RESva" (
3.816793902067802e-18
1.657575493560014e-22
3.816959659617158e-18
)
"Rref" (
0.000000000000000e+00
0.000000000000000e+00
)
"Rva" (
0.000000000000000e+00
0.000000000000000e+00
)
"RESref" (
0.000000000000000e+00
0.000000000000000e+00
0.000000000000000e+00
)
"out" 1.953704087014499e-09
"freq" 7.113117640155688e+00
"RESva" (
3.816793904382270e-18
1.657575493560014e-22
3.816959661931626e-18
)
"Rref" (
0.000000000000000e+00
0.000000000000000e+00
)
"Rva" (
0.000000000000000e+00
0.000000000000000e+00
)
"RESref" (
0.000000000000000e+00
0.000000000000000e+00
0.000000000000000e+00
)
"out" 1.953704087606827e-09
"freq" 7.981049259875515e+00
"RESva" (
3.816793907296010e-18
1.657575493560014e-22
3.816959664845366e-18
)
"Rref" (
0.000000000000000e+00
0.000000000000000e+00
)
"Rva" (
0.000000000000000e+00
0.000000000000000e+00
)
"RESref" (
0.000000000000000e+00
0.000000000000000e+00
0.000000000000000e+00
)
"out" 1.953704088352524e-09
"freq" 8.954884554273354e+00
"RESva" (
3.816793910964192e-18
1.657575493560014e-22
3.816959668513548e-18
)
"Rref" (
0.000000000000000e+00
0.000000000000000e+00
)
"Rva" (
0.000000000000000e+00
0.000000000000000e+00
)
"RESref" (
0.000000000000000e+00
0.000000000000000e+00
0.000000000000000e+00
)
"out" 1.953704089291300e-09
"freq" 1.004754572603832e+01
"RESva" (
3.816793915582157e-18
1.657575493560014e-22
3.816959673131513e-18
)
"Rref" (
0.000000000000000e+00
0.000000000000000e+00
)
"Rva" (
0.000000000000000e+00
0.000000000000000e+00
)
"RESref" (
0.000000000000000e+00
0.000000000000000e+00
0.000000000000000e+00
)
"out" 1.953704090473149e-09
"freq" 1.127353172505781e+01
"RESva" (
3.816793921395833e-18
1.657575493560014e-22
3.816959678945189e-18
)
"Rref" (
0.000000000000000e+00
0.000000000000000e+00
)
"Rva" (
0.000000000000000e+00
0.000000000000000e+00
)
"RESref" (
0.000000000000000e+00
0.000000000000000e+00
0.000000000000000e+00
)
"out" 1.953704091961008e-09
"freq" 1.264911064067351e+01
"RESva" (
3.816793928714817e-18
1.657575493560014e-22
3.816959686264173e-18
)
"Rref" (
0.000000000000000e+00
0.000000000000000e+00
)
"Rva" (
0.000000000000000e+00
0.000000000000000e+00
)
"RESref" (
0.000000000000000e+00
0.000000000000000e+00
0.000000000000000e+00
)
"out" 1.953704093834113e-09
"freq" 1.419253556934301e+01
"RESva" (
3.816793937928871e-18
1.657575493560014e-22
3.816959695478227e-18
)
"Rref" (
0.000000000000000e+00
0.000000000000000e+00
)
"Rva" (
0.000000000000000e+00
0.000000000000000e+00
)
"RESref" (
0.000000000000000e+00
0.000000000000000e+00
0.000000000000000e+00
)
"out" 1.953704096192212e-09
"freq" 1.592428682213987e+01
"RESva" (
3.816793949528679e-18
1.657575493560014e-22
3.816959707078035e-18
)
"Rref" (
0.000000000000000e+00
0.000000000000000e+00
)
"Rva" (
0.000000000000000e+00
0.000000000000000e+00
)
"RESref" (
0.000000000000000e+00
0.000000000000000e+00
0.000000000000000e+00
)
"out" 1.953704099160882e-09
"freq" 1.786734368603851e+01
"RESva" (
3.816793964131972e-18
1.657575493560014e-22
3.816959721681328e-18
)
"Rref" (
0.000000000000000e+00
0.000000000000000e+00
)
"Rva" (
0.000000000000000e+00
0.000000000000000e+00
)
"RESref" (
0.000000000000000e+00
0.000000000000000e+00
0.000000000000000e+00
)
"out" 1.953704102898217e-09
"freq" 2.004748934509087e+01
"RESva" (
3.816793982516427e-18
1.657575493560014e-22
3.816959740065783e-18
)
"Rref" (
0.000000000000000e+00
0.000000000000000e+00
)
"Rva" (
0.000000000000000e+00
0.000000000000000e+00
)
"RESref" (
0.000000000000000e+00
0.000000000000000e+00
0.000000000000000e+00
)
"out" 1.953704107603243e-09
"freq" 2.249365300761394e+01
"RESva" (
3.816794005661088e-18
1.657575493560014e-22
3.816959763210444e-18
)
"Rref" (
0.000000000000000e+00
0.000000000000000e+00
)
"Rva" (
0.000000000000000e+00
0.000000000000000e+00
)
"RESref" (
0.000000000000000e+00
0.000000000000000e+00
0.000000000000000e+00
)
"out" 1.953704113526520e-09
"freq" 2.523829377920770e+01
"RESva" (
3.816794034798488e-18
1.657575493560014e-22
3.816959792347844e-18
)
"Rref" (
0.000000000000000e+00
0.000000000000000e+00
)
"Rva" (
0.000000000000000e+00
0.000000000000000e+00
)
"RESref" (
0.000000000000000e+00
0.000000000000000e+00
0.000000000000000e+00
)
"out" 1.953704120983483e-09
"freq" 2.831783137536548e+01
"RESva" (
3.816794071480301e-18
1.657575493560014e-22
3.816959829029657e-18
)
"Rref" (
0.000000000000000e+00
0.000000000000000e+00
)
"Rva" (
0.000000000000000e+00
0.000000000000000e+00
)
"RESref" (
0.000000000000000e+00
0.000000000000000e+00
0.000000000000000e+00
)
"out" 1.953704130371244e-09
"freq" 3.177312938897122e+01
"RESva" (
3.816794117659973e-18
1.657575493560014e-22
3.816959875209329e-18
)
"Rref" (
0.000000000000000e+00
0.000000000000000e+00
)
"Rva" (
0.000000000000000e+00
0.000000000000000e+00
)
"RESref" (
0.000000000000000e+00
0.000000000000000e+00
0.000000000000000e+00
)
"out" 1.953704142189735e-09
"freq" 3.565003752534977e+01
"RESva" (
3.816794175796734e-18
1.657575493560014e-22
3.816959933346090e-18
)
"Rref" (
0.000000000000000e+00
0.000000000000000e+00
)
"Rva" (
0.000000000000000e+00
0.000000000000000e+00
)
"RESref" (
0.000000000000000e+00
0.000000000000000e+00
0.000000000000000e+00
)
"out" 1.953704157068334e-09
"freq" 3.999999999999994e+01
"RESva" (
3.816794248986583e-18
1.657575493560014e-22
3.816960006535939e-18
)
"Rref" (
0.000000000000000e+00
0.000000000000000e+00
)
"Rva" (
0.000000000000000e+00
0.000000000000000e+00
)
"RESref" (
0.000000000000000e+00
0.000000000000000e+00
0.000000000000000e+00
)
"out" 1.953704175799381e-09
"freq" 4.488073817207846e+01
"RESva" (
3.816794341127147e-18
1.657575493560014e-22
3.816960098676503e-18
)
"Rref" (
0.000000000000000e+00
0.000000000000000e+00
)
"Rva" (
0.000000000000000e+00
0.000000000000000e+00
)
"RESref" (
0.000000000000000e+00
0.000000000000000e+00
0.000000000000000e+00
)
"out" 1.953704199380373e-09
"freq" 5.035701647176660e+01
"RESva" (
3.816794457125249e-18
1.657575493560014e-22
3.816960214674605e-18
)
"Rref" (
0.000000000000000e+00
0.000000000000000e+00
)
"Rva" (
0.000000000000000e+00
0.000000000000000e+00
)
"RESref" (
0.000000000000000e+00
0.000000000000000e+00
0.000000000000000e+00
)
"out" 1.953704229067083e-09
"freq" 5.650150178491007e+01
"RESva" (
3.816794603158222e-18
1.657575493560014e-22
3.816960360707578e-18
)
"Rref" (
0.000000000000000e+00
0.000000000000000e+00
)
"Rva" (
0.000000000000000e+00
0.000000000000000e+00
)
"RESref" (
0.000000000000000e+00
0.000000000000000e+00
0.000000000000000e+00
)
"out" 1.953704266440440e-09
"freq" 6.339572769844442e+01
"RESva" (
3.816794787002855e-18
1.657575493560014e-22
3.816960544552211e-18
)
"Rref" (
0.000000000000000e+00
0.000000000000000e+00
)
"Rva" (
0.000000000000000e+00
0.000000000000000e+00
)
"RESref" (
0.000000000000000e+00
0.000000000000000e+00
0.000000000000000e+00
)
"out" 1.953704313490711e-09
"freq" 7.113117640155677e+01
"RESva" (
3.816795018449562e-18
1.657575493560014e-22
3.816960775998918e-18
)
"Rref" (
0.000000000000000e+00
0.000000000000000e+00
)
"Rva" (
0.000000000000000e+00
0.000000000000000e+00
)
"RESref" (
0.000000000000000e+00
0.000000000000000e+00
0.000000000000000e+00
)
"out" 1.953704372723498e-09
"freq" 7.981049259875502e+01
"RESva" (
3.816795309823742e-18
1.657575493560014e-22
3.816961067373098e-18
)
"Rref" (
0.000000000000000e+00
0.000000000000000e+00
)
"Rva" (
0.000000000000000e+00
0.000000000000000e+00
)
"RESref" (
0.000000000000000e+00
0.000000000000000e+00
0.000000000000000e+00
)
"out" 1.953704447293167e-09
"freq" 8.954884554273339e+01
"RESva" (
3.816795676642166e-18
1.657575493560014e-22
3.816961434191522e-18
)
"Rref" (
0.000000000000000e+00
0.000000000000000e+00
)
"Rva" (
0.000000000000000e+00
0.000000000000000e+00
)
"RESref" (
0.000000000000000e+00
0.000000000000000e+00
0.000000000000000e+00
)
"out" 1.953704541170830e-09
"freq" 1.004754572603830e+02
"RESva" (
3.816796138439300e-18
1.657575493560014e-22
3.816961895988656e-18
)
"Rref" (
0.000000000000000e+00
0.000000000000000e+00
)
"Rva" (
0.000000000000000e+00
0.000000000000000e+00
)
"RESref" (
0.000000000000000e+00
0.000000000000000e+00
0.000000000000000e+00
)
"out" 1.953704659355824e-09
"freq" 1.127353172505779e+02
"RESva" (
3.816796719807608e-18
1.657575493560014e-22
3.816962477356965e-18
)
"Rref" (
0.000000000000000e+00
0.000000000000000e+00
)
"Rva" (
0.000000000000000e+00
0.000000000000000e+00
)
"RESref" (
0.000000000000000e+00
0.000000000000000e+00
0.000000000000000e+00
)
"out" 1.953704808141948e-09
"freq" 1.264911064067349e+02
"RESva" (
3.816797451707193e-18
1.657575493560014e-22
3.816963209256549e-18
)
"Rref" (
0.000000000000000e+00
0.000000000000000e+00
)
"Rva" (
0.000000000000000e+00
0.000000000000000e+00
)
"RESref" (
0.000000000000000e+00
0.000000000000000e+00
0.000000000000000e+00
)
"out" 1.953704995452627e-09
"freq" 1.419253556934298e+02
"RESva" (
3.816798373114583e-18
1.657575493560014e-22
3.816964130663939e-18
)
"Rref" (
0.000000000000000e+00
0.000000000000000e+00
)
"Rva" (
0.000000000000000e+00
0.000000000000000e+00
)
"RESref" (
0.000000000000000e+00
0.000000000000000e+00
0.000000000000000e+00
)
"out" 1.953705231262879e-09
"freq" 1.592428682213985e+02
"RESva" (
3.816799533098391e-18
1.657575493560014e-22
3.816965290647747e-18
)
"Rref" (
0.000000000000000e+00
0.000000000000000e+00
)
"Rva" (
0.000000000000000e+00
0.000000000000000e+00
)
"RESref" (
0.000000000000000e+00
0.000000000000000e+00
0.000000000000000e+00
)
"out" 1.953705528130518e-09
"freq" 1.786734368603848e+02
"RESva" (
3.816800993432487e-18
1.657575493560014e-22
3.816966750981843e-18
)
"Rref" (
0.000000000000000e+00
0.000000000000000e+00
)
"Rva" (
0.000000000000000e+00
0.000000000000000e+00
)
"RESref" (
0.000000000000000e+00
0.000000000000000e+00
0.000000000000000e+00
)
"out" 1.953705901864926e-09
"freq" 2.004748934509084e+02
"RESva" (
3.816802831885780e-18
1.657575493560014e-22
3.816968589435136e-18
)
"Rref" (
0.000000000000000e+00
0.000000000000000e+00
)
"Rva" (
0.000000000000000e+00
0.000000000000000e+00
)
"RESref" (
0.000000000000000e+00
0.000000000000000e+00
0.000000000000000e+00
)
"out" 1.953706372368974e-09
"freq" 2.249365300761390e+02
"RESva" (
3.816805146363866e-18
1.657575493560014e-22
3.816970903913222e-18
)
"Rref" (
0.000000000000000e+00
0.000000000000000e+00
)
"Rva" (
0.000000000000000e+00
0.000000000000000e+00
)
"RESref" (
0.000000000000000e+00
0.000000000000000e+00
0.000000000000000e+00
)
"out" 1.953706964698959e-09
"freq" 2.523829377920765e+02
"RESva" (
3.816808060123135e-18
1.657575493560014e-22
3.816973817672491e-18
)
"Rref" (
0.000000000000000e+00
0.000000000000000e+00
)
"Rva" (
0.000000000000000e+00
0.000000000000000e+00
)
"RESref" (
0.000000000000000e+00
0.000000000000000e+00
0.000000000000000e+00
)
"out" 1.953707710398997e-09
"freq" 2.831783137536543e+02
"RESva" (
3.816811728335049e-18
1.657575493560014e-22
3.816977485884405e-18
)
"Rref" (
0.000000000000000e+00
0.000000000000000e+00
)
"Rva" (
0.000000000000000e+00
0.000000000000000e+00
)
"RESref" (
0.000000000000000e+00
0.000000000000000e+00
0.000000000000000e+00
)
"out" 1.953708649180938e-09
"freq" 3.177312938897117e+02
"RESva" (
3.816816346350267e-18
1.657575493560014e-22
3.816982103899623e-18
)
"Rref" (
0.000000000000000e+00
0.000000000000000e+00
)
"Rva" (
0.000000000000000e+00
0.000000000000000e+00
)
"RESref" (
0.000000000000000e+00
0.000000000000000e+00
0.000000000000000e+00
)
"out" 1.953709831039303e-09
"freq" 3.565003752534971e+02
"RESva" (
3.816822160102869e-18
1.657575493560014e-22
3.816987917652225e-18
)
"Rref" (
0.000000000000000e+00
0.000000000000000e+00
)
"Rva" (
0.000000000000000e+00
0.000000000000000e+00
)
"RESref" (
0.000000000000000e+00
0.000000000000000e+00
0.000000000000000e+00
)
"out" 1.953711318913883e-09
"freq" 3.999999999999987e+02
"RESva" (
3.816829479208941e-18
1.657575493560014e-22
3.816995236758297e-18
)
"Rref" (
0.000000000000000e+00
0.000000000000000e+00
)
"Rva" (
0.000000000000000e+00
0.000000000000000e+00
)
"RESref" (
0.000000000000000e+00
0.000000000000000e+00
0.000000000000000e+00
)
"out" 1.953713192041835e-09
"freq" 4.488073817207840e+02
"RESva" (
3.816838693457477e-18
1.657575493560014e-22
3.817004451006833e-18
)
"Rref" (
0.000000000000000e+00
0.000000000000000e+00
)
"Rva" (
0.000000000000000e+00
0.000000000000000e+00
)
"RESref" (
0.000000000000000e+00
0.000000000000000e+00
0.000000000000000e+00
)
"out" 1.953715550177874e-09
"freq" 5.035701647176653e+02
"RESva" (
3.816850293572369e-18
1.657575493560014e-22
3.817016051121725e-18
)
"Rref" (
0.000000000000000e+00
0.000000000000000e+00
)
"Rva" (
0.000000000000000e+00
0.000000000000000e+00
)
"RESref" (
0.000000000000000e+00
0.000000000000000e+00
0.000000000000000e+00
)
"out" 1.953718518907400e-09
"freq" 5.650150178490999e+02
"RESva" (
3.816864897352048e-18
1.657575493560014e-22
3.817030654901404e-18
)
"Rref" (
0.000000000000000e+00
0.000000000000000e+00
)
"Rva" (
0.000000000000000e+00
0.000000000000000e+00
)
"RESref" (
0.000000000000000e+00
0.000000000000000e+00
0.000000000000000e+00
)
"out" 1.953722256335686e-09
"freq" 6.339572769844433e+02
"RESva" (
3.816883282580295e-18
1.657575493560014e-22
3.817049040129651e-18
)
"Rref" (
0.000000000000000e+00
0.000000000000000e+00
)
"Rva" (
0.000000000000000e+00
0.000000000000000e+00
)
"RESref" (
0.000000000000000e+00
0.000000000000000e+00
0.000000000000000e+00
)
"out" 1.953726961509630e-09
"freq" 7.113117640155667e+02
"RESva" (
3.816906428463183e-18
1.657575493560014e-22
3.817072186012539e-18
)
"Rref" (
0.000000000000000e+00
0.000000000000000e+00
)
"Rva" (
0.000000000000000e+00
0.000000000000000e+00
)
"RESref" (
0.000000000000000e+00
0.000000000000000e+00
0.000000000000000e+00
)
"out" 1.953732885021015e-09
"freq" 7.981049259875491e+02
"RESva" (
3.816935567802487e-18
1.657575493560014e-22
3.817101325351843e-18
)
"Rref" (
0.000000000000000e+00
0.000000000000000e+00
)
"Rva" (
0.000000000000000e+00
0.000000000000000e+00
)
"RESref" (
0.000000000000000e+00
0.000000000000000e+00
0.000000000000000e+00
)
"out" 1.953740342356641e-09
"freq" 8.954884554273327e+02
"RESva" (
3.816972252689855e-18
1.657575493560014e-22
3.817138010239211e-18
)
"Rref" (
0.000000000000000e+00
0.000000000000000e+00
)
"Rva" (
0.000000000000000e+00
0.000000000000000e+00
)
"RESref" (
0.000000000000000e+00
0.000000000000000e+00
0.000000000000000e+00
)
"out" 1.953749730707393e-09
"freq" 1.004754572603828e+03
"RESva" (
3.817018437229480e-18
1.657575493560014e-22
3.817184194778836e-18
)
"Rref" (
0.000000000000000e+00
0.000000000000000e+00
)
"Rva" (
0.000000000000000e+00
0.000000000000000e+00
)
"RESref" (
0.000000000000000e+00
0.000000000000000e+00
0.000000000000000e+00
)
"out" 1.953761550133187e-09
"freq" 1.127353172505777e+03
"RESva" (
3.817076581709261e-18
1.657575493560014e-22
3.817242339258617e-18
)
"Rref" (
0.000000000000000e+00
0.000000000000000e+00
)
"Rva" (
0.000000000000000e+00
0.000000000000000e+00
)
"RESref" (
0.000000000000000e+00
0.000000000000000e+00
0.000000000000000e+00
)
"out" 1.953776430213707e-09
"freq" 1.264911064067347e+03
"RESva" (
3.817149783791272e-18
1.657575493560014e-22
3.817315541340628e-18
)
"Rref" (
0.000000000000000e+00
0.000000000000000e+00
)
"Rva" (
0.000000000000000e+00
0.000000000000000e+00
)
"RESref" (
0.000000000000000e+00
0.000000000000000e+00
0.000000000000000e+00
)
"out" 1.953795163608670e-09
"freq" 1.419253556934297e+03
"RESva" (
3.817241943744855e-18
1.657575493560014e-22
3.817407701294211e-18
)
"Rref" (
0.000000000000000e+00
0.000000000000000e+00
)
"Rva" (
0.000000000000000e+00
0.000000000000000e+00
)
"RESref" (
0.000000000000000e+00
0.000000000000000e+00
0.000000000000000e+00
)
"out" 1.953818748321914e-09
"freq" 1.592428682213983e+03
"RESva" (
3.817357972580283e-18
1.657575493560014e-22
3.817523730129639e-18
)
"Rref" (
0.000000000000000e+00
0.000000000000000e+00
)
"Rva" (
0.000000000000000e+00
0.000000000000000e+00
)
"RESref" (
0.000000000000000e+00
0.000000000000000e+00
0.000000000000000e+00
)
"out" 1.953848440931292e-09
"freq" 1.786734368603845e+03
"RESva" (
3.817504054259698e-18
1.657575493560014e-22
3.817669811809054e-18
)
"Rref" (
0.000000000000000e+00
0.000000000000000e+00
)
"Rva" (
0.000000000000000e+00
0.000000000000000e+00
)
"RESref" (
0.000000000000000e+00
0.000000000000000e+00
0.000000000000000e+00
)
"out" 1.953885823636851e-09
"freq" 2.004748934509081e+03
"RESva" (
3.817687976096437e-18
1.657575493560014e-22
3.817853733645793e-18
)
"Rref" (
0.000000000000000e+00
0.000000000000000e+00
)
"Rva" (
0.000000000000000e+00
0.000000000000000e+00
)
"RESref" (
0.000000000000000e+00
0.000000000000000e+00
0.000000000000000e+00
)
"out" 1.953932888726169e-09
"freq" 2.249365300761387e+03
"RESva" (
3.817919545171350e-18
1.657575493560014e-22
3.818085302720706e-18
)
"Rref" (
0.000000000000000e+00
0.000000000000000e+00
)
"Rva" (
0.000000000000000e+00
0.000000000000000e+00
)
"RESref" (
0.000000000000000e+00
0.000000000000000e+00
0.000000000000000e+00
)
"out" 1.953992144999745e-09
"freq" 2.523829377920762e+03
"RESva" (
3.818211113312411e-18
1.657575493560014e-22
3.818376870861767e-18
)
"Rref" (
0.000000000000000e+00
0.000000000000000e+00
)
"Rva" (
0.000000000000000e+00
0.000000000000000e+00
)
"RESref" (
0.000000000000000e+00
0.000000000000000e+00
0.000000000000000e+00
)
"out" 1.954066751895075e-09
"freq" 2.831783137536539e+03
"RESva" (
3.818578239182641e-18
1.657575493560014e-22
3.818743996731997e-18
)
"Rref" (
0.000000000000000e+00
0.000000000000000e+00
)
"Rva" (
0.000000000000000e+00
0.000000000000000e+00
)
"RESref" (
0.000000000000000e+00
0.000000000000000e+00
0.000000000000000e+00
)
"out" 1.954160688564786e-09
"freq" 3.177312938897112e+03
"RESva" (
3.819040523667872e-18
1.657575493560014e-22
3.819206281217228e-18
)
"Rref" (
0.000000000000000e+00
0.000000000000000e+00
)
"Rva" (
0.000000000000000e+00
0.000000000000000e+00
)
"RESref" (
0.000000000000000e+00
0.000000000000000e+00
0.000000000000000e+00
)
"out" 1.954278967091758e-09
"freq" 3.565003752534966e+03
"RESva" (
3.819622664532536e-18
1.657575493560014e-22
3.819788422081892e-18
)
"Rref" (
0.000000000000000e+00
0.000000000000000e+00
)
"Rva" (
0.000000000000000e+00
0.000000000000000e+00
)
"RESref" (
0.000000000000000e+00
0.000000000000000e+00
0.000000000000000e+00
)
"out" 1.954427901479584e-09
"freq" 3.999999999999982e+03
"RESva" (
3.820355788859023e-18
1.657575493560014e-22
3.820521546408379e-18
)
"Rref" (
0.000000000000000e+00
0.000000000000000e+00
)
"Rva" (
0.000000000000000e+00
0.000000000000000e+00
)
"RESref" (
0.000000000000000e+00
0.000000000000000e+00
0.000000000000000e+00
)
"out" 1.954615447193739e-09
"freq" 4.488073817207833e+03
"RESva" (
3.821279137963135e-18
1.657575493560014e-22
3.821444895512491e-18
)
"Rref" (
0.000000000000000e+00
0.000000000000000e+00
)
"Rva" (
0.000000000000000e+00
0.000000000000000e+00
)
"RESref" (
0.000000000000000e+00
0.000000000000000e+00
0.000000000000000e+00
)
"out" 1.954851630050856e-09
"freq" 5.035701647176645e+03
"RESva" (
3.822442200451085e-18
1.657575493560014e-22
3.822607958000441e-18
)
"Rref" (
0.000000000000000e+00
0.000000000000000e+00
)
"Rva" (
0.000000000000000e+00
0.000000000000000e+00
)
"RESref" (
0.000000000000000e+00
0.000000000000000e+00
0.000000000000000e+00
)
"out" 1.955149088433013e-09
"freq" 5.650150178490990e+03
"RESva" (
3.823907416456600e-18
1.657575493560014e-22
3.824073174005956e-18
)
"Rref" (
0.000000000000000e+00
0.000000000000000e+00
)
"Rva" (
0.000000000000000e+00
0.000000000000000e+00
)
"RESref" (
0.000000000000000e+00
0.000000000000000e+00
0.000000000000000e+00
)
"out" 1.955523759509446e-09
"freq" 6.339572769844423e+03
"RESva" (
3.825753612109133e-18
1.657575493560014e-22
3.825919369658489e-18
)
"Rref" (
0.000000000000000e+00
0.000000000000000e+00
)
"Rva" (
0.000000000000000e+00
0.000000000000000e+00
)
"RESref" (
0.000000000000000e+00
0.000000000000000e+00
0.000000000000000e+00
)
"out" 1.955995748885587e-09
"freq" 7.113117640155655e+03
"RESva" (
3.828080371109502e-18
1.657575493560014e-22
3.828246128658858e-18
)
"Rref" (
0.000000000000000e+00
0.000000000000000e+00
)
"Rva" (
0.000000000000000e+00
0.000000000000000e+00
)
"RESref" (
0.000000000000000e+00
0.000000000000000e+00
0.000000000000000e+00
)
"out" 1.956590434572054e-09
"freq" 7.981049259875477e+03
"RESva" (
3.831013614501212e-18
1.657575493560014e-22
3.831179372050568e-18
)
"Rref" (
0.000000000000000e+00
0.000000000000000e+00
)
"Rva" (
0.000000000000000e+00
0.000000000000000e+00
)
"RESref" (
0.000000000000000e+00
0.000000000000000e+00
0.000000000000000e+00
)
"out" 1.957339871368937e-09
"freq" 8.954884554273311e+03
"RESva" (
3.834712747027444e-18
1.657575493560014e-22
3.834878504576800e-18
)
"Rref" (
0.000000000000000e+00
0.000000000000000e+00
)
"Rva" (
0.000000000000000e+00
0.000000000000000e+00
)
"RESref" (
0.000000000000000e+00
0.000000000000000e+00
0.000000000000000e+00
)
"out" 1.958284582122016e-09
"freq" 1.004754572603827e+04
"RESva" (
3.839379848855514e-18
1.657575493560014e-22
3.839545606404870e-18
)
"Rref" (
0.000000000000000e+00
0.000000000000000e+00
)
"Rva" (
0.000000000000000e+00
0.000000000000000e+00
)
"RESref" (
0.000000000000000e+00
0.000000000000000e+00
0.000000000000000e+00
)
"out" 1.959475849916214e-09
"freq" 1.127353172505775e+04
"RESva" (
3.845271560121780e-18
1.657575493560014e-22
3.845437317671136e-18
)
"Rref" (
0.000000000000000e+00
0.000000000000000e+00
)
"Rva" (
0.000000000000000e+00
0.000000000000000e+00
)
"RESref" (
0.000000000000000e+00
0.000000000000000e+00
0.000000000000000e+00
)
"out" 1.960978663237093e-09
"freq" 1.264911064067345e+04
"RESva" (
3.852714546202455e-18
1.657575493560014e-22
3.852880303751811e-18
)
"Rref" (
0.000000000000000e+00
0.000000000000000e+00
)
"Rva" (
0.000000000000000e+00
0.000000000000000e+00
)
"RESref" (
0.000000000000000e+00
0.000000000000000e+00
0.000000000000000e+00
)
"out" 1.962875519168704e-09
"freq" 1.419253556934294e+04
"RESva" (
3.862125780913107e-18
1.657575493560014e-22
3.862291538462464e-18
)
"Rref" (
0.000000000000000e+00
0.000000000000000e+00
)
"Rva" (
0.000000000000000e+00
0.000000000000000e+00
)
"RESref" (
0.000000000000000e+00
0.000000000000000e+00
0.000000000000000e+00
)
"out" 1.965271365095025e-09
"freq" 1.592428682213980e+04
"RESva" (
3.874039402612446e-18
1.657575493560014e-22
3.874205160161802e-18
)
"Rref" (
0.000000000000000e+00
0.000000000000000e+00
)
"Rva" (
0.000000000000000e+00
0.000000000000000e+00
)
"RESref" (
0.000000000000000e+00
0.000000000000000e+00
0.000000000000000e+00
)
"out" 1.968300068628207e-09
"freq" 1.786734368603842e+04
"RESva" (
3.889142682423649e-18
1.657575493560014e-22
3.889308439973005e-18
)
"Rref" (
0.000000000000000e+00
0.000000000000000e+00
)
"Rva" (
0.000000000000000e+00
0.000000000000000e+00
)
"RESref" (
0.000000000000000e+00
0.000000000000000e+00
0.000000000000000e+00
)
"out" 1.972132967112767e-09
"freq" 2.004748934509077e+04
"RESva" (
3.908324859239243e-18
1.657575493560014e-22
3.908490616788599e-18
)
"Rref" (
0.000000000000000e+00
0.000000000000000e+00
)
"Rva" (
0.000000000000000e+00
0.000000000000000e+00
)
"RESref" (
0.000000000000000e+00
0.000000000000000e+00
0.000000000000000e+00
)
"out" 1.976990292537776e-09
"freq" 2.249365300761383e+04
"RESva" (
3.932744526872829e-18
1.657575493560014e-22
3.932910284422185e-18
)
"Rref" (
0.000000000000000e+00
0.000000000000000e+00
)
"Rva" (
0.000000000000000e+00
0.000000000000000e+00
)
"RESref" (
0.000000000000000e+00
0.000000000000000e+00
0.000000000000000e+00
)
"out" 1.983156646465978e-09
"freq" 2.523829377920758e+04
"RESva" (
3.963924408173737e-18
1.657575493560014e-22
3.964090165723093e-18
)
"Rref" (
0.000000000000000e+00
0.000000000000000e+00
)
"Rva" (
0.000000000000000e+00
0.000000000000000e+00
)
"RESref" (
0.000000000000000e+00
0.000000000000000e+00
0.000000000000000e+00
)
"out" 1.991002301787492e-09
"freq" 2.831783137536535e+04
"RESva" (
4.003887640123574e-18
1.657575493560014e-22
4.004053397672930e-18
)
"Rref" (
0.000000000000000e+00
0.000000000000000e+00
)
"Rva" (
0.000000000000000e+00
0.000000000000000e+00
)
"RESref" (
0.000000000000000e+00
0.000000000000000e+00
0.000000000000000e+00
)
"out" 2.001013092828962e-09
"freq" 3.177312938897107e+04
"RESva" (
4.055358868363302e-18
1.657575493560014e-22
4.055524625912658e-18
)
"Rref" (
0.000000000000000e+00
0.000000000000000e+00
)
"Rva" (
0.000000000000000e+00
0.000000000000000e+00
)
"RESref" (
0.000000000000000e+00
0.000000000000000e+00
0.000000000000000e+00
)
"out" 2.013833316318076e-09
"freq" 3.565003752534960e+04
"RESva" (
4.122069953958917e-18
1.657575493560014e-22
4.122235711508273e-18
)
"Rref" (
0.000000000000000e+00
0.000000000000000e+00
)
"Rva" (
0.000000000000000e+00
0.000000000000000e+00
)
"RESref" (
0.000000000000000e+00
0.000000000000000e+00
0.000000000000000e+00
)
"out" 2.030328966327445e-09
"freq" 3.999999999999975e+04
"RESva" (
4.209241051345534e-18
1.657575493560014e-22
4.209406808894890e-18
)
"Rref" (
0.000000000000000e+00
0.000000000000000e+00
)
"Rva" (
0.000000000000000e+00
0.000000000000000e+00
)
"RESref" (
0.000000000000000e+00
0.000000000000000e+00
0.000000000000000e+00
)
"out" 2.051683895948616e-09
"freq" 4.488073817207826e+04
"RESva" (
4.324368764272894e-18
1.657575493560014e-22
4.324534521822250e-18
)
"Rref" (
0.000000000000000e+00
0.000000000000000e+00
)
"Rva" (
0.000000000000000e+00
0.000000000000000e+00
)
"RESref" (
0.000000000000000e+00
0.000000000000000e+00
0.000000000000000e+00
)
"out" 2.079551519396009e-09
"freq" 5.035701647176637e+04
"RESva" (
4.478580146748081e-18
1.657575493560014e-22
4.478745904297437e-18
)
"Rref" (
0.000000000000000e+00
0.000000000000000e+00
)
"Rva" (
0.000000000000000e+00
0.000000000000000e+00
)
"RESref" (
0.000000000000000e+00
0.000000000000000e+00
0.000000000000000e+00
)
"out" 2.116304775852816e-09
"freq" 5.650150178490981e+04
"RESva" (
4.689094998330693e-18
1.657575493560014e-22
4.689260755880049e-18
)
"Rref" (
0.000000000000000e+00
0.000000000000000e+00
)
"Rva" (
0.000000000000000e+00
0.000000000000000e+00
)
"RESref" (
0.000000000000000e+00
0.000000000000000e+00
0.000000000000000e+00
)
"out" 2.165470100435480e-09
"freq" 6.339572769844413e+04
"RESva" (
4.984027633535465e-18
1.657575493560014e-22
4.984193391084821e-18
)
"Rref" (
0.000000000000000e+00
0.000000000000000e+00
)
"Rva" (
0.000000000000000e+00
0.000000000000000e+00
)
"RESref" (
0.000000000000000e+00
0.000000000000000e+00
0.000000000000000e+00
)
"out" 2.232530714477367e-09
"freq" 7.113117640155645e+04
"RESva" (
5.412616684202634e-18
1.657575493560014e-22
5.412782441751990e-18
)
"Rref" (
0.000000000000000e+00
0.000000000000000e+00
)
"Rva" (
0.000000000000000e+00
0.000000000000000e+00
)
"RESref" (
0.000000000000000e+00
0.000000000000000e+00
0.000000000000000e+00
)
"out" 2.326538725607633e-09
"freq" 7.981049259875466e+04
"RESva" (
6.069712583276320e-18
1.657575493560014e-22
6.069878340825676e-18
)
"Rref" (
0.000000000000000e+00
0.000000000000000e+00
)
"Rva" (
0.000000000000000e+00
0.000000000000000e+00
)
"RESref" (
0.000000000000000e+00
0.000000000000000e+00
0.000000000000000e+00
)
"out" 2.463712308859473e-09
"freq" 8.954884554273299e+04
"RESva" (
7.164730853660549e-18
1.657575493560014e-22
7.164896611209905e-18
)
"Rref" (
0.000000000000000e+00
0.000000000000000e+00
)
"Rva" (
0.000000000000000e+00
0.000000000000000e+00
)
"RESref" (
0.000000000000000e+00
0.000000000000000e+00
0.000000000000000e+00
)
"out" 2.676732450434654e-09
"freq" 1.004754572603825e+05
"RESva" (
9.270158984399706e-18
1.657575493560014e-22
9.270324741949062e-18
)
"Rref" (
0.000000000000000e+00