HEADER
"PSFversion" "1.00"
"simulator" "spectre"
"version" "15.1.0.284.isr1"
"date" "9:11:11 AM, Sat Sep 14, 2019"
"design" ""
"analysis type" "td.pss"
"analysis name" "pss"
"analysis description" "Periodic Steady-State Analysis `pss': time = (0 s -> 7.63359 us)"
"xVecSorted" "ascending"
"tolerance.relative" 0.00100000
"fundamental" 131000.
"start" 0.00000
"outputstart" 0.00000
"stop" 7.63359e-06
"period" 7.63359e-06
"steadyratio" 0.00100000
"harms" -1
"step" 7.63359e-09
"maxstep" 1.52672e-07
"ic" "all"
"useprevic" "no"
"skipdc" "no"
"reltol" 0.00100000
"abstol(V)" 1.00000e-06
"abstol(I)" 1.00000e-12
"temp" 27.0000
"tnom" 27.0000
"tempeffects" "all"
"errpreset" "liberal"
"method" "traponly"
"lteratio" 3.50000
"relref" "sigglobal"
"cmin" 0.00000
"gmin" 1.00000e-12
TYPE
"sweep" FLOAT DOUBLE PROP(
"key" "sweep"
)
"Real" FLOAT DOUBLE PROP(
"units" ""
"key" "node"
"tolerance" 1.00000e-06
)
"Tau" FLOAT DOUBLE PROP(
"units" "N*m"
"key" "node"
"tolerance" 1.00000e-06
)
"Alpha" FLOAT DOUBLE PROP(
"units" "rads/s^2"
"key" "node"
"tolerance" 1.00000e-06
)
"Omega" FLOAT DOUBLE PROP(
"units" "rads/s"
"key" "node"
"tolerance" 1.00000e-06
)
"Theta" FLOAT DOUBLE PROP(
"units" "rads"
"key" "node"
"tolerance" 1.00000e-06
)
"F" FLOAT DOUBLE PROP(
"units" "N"
"key" "node"
"tolerance" 1.00000e-06
)
"Imp" FLOAT DOUBLE PROP(
"units" "m/s^3"
"key" "node"
"tolerance" 1.00000e-06
)
"Acc" FLOAT DOUBLE PROP(
"units" "m/s^2"
"key" "node"
"tolerance" 1.00000e-06
)
"Vel" FLOAT DOUBLE PROP(
"units" "m/s"
"key" "node"
"tolerance" 1.00000e-06
)
"Pos" FLOAT DOUBLE PROP(
"units" "m"
"key" "node"
"tolerance" 1.00000e-06
)
"Phi" FLOAT DOUBLE PROP(
"units" "Wb"
"key" "node"
"tolerance" 1.00000e-09
)
"V" FLOAT DOUBLE PROP(
"units" "V"
"key" "node"
"tolerance" 1.00000e-06
)
"I" FLOAT DOUBLE PROP(
"units" "A"
"key" "branch"
"tolerance" 1.00000e-12
)
"MMF" FLOAT DOUBLE PROP(
"units" "A*turn"
"key" "node"
"tolerance" 1.00000e-12
)
"Wb" FLOAT DOUBLE PROP(
"units" "Wb"
"key" "node"
"tolerance" 1.00000e-09
)
"Temp" FLOAT DOUBLE PROP(
"units" "C"
"key" "node"
"tolerance" 0.000100000
)
"Pwr" FLOAT DOUBLE PROP(
"units" "W"
"key" "node"
"tolerance" 1.00000e-09
)
"U" FLOAT DOUBLE PROP(
"units" ""
"key" "node"
"tolerance" 1.00000e-06
)
"V/Sec" FLOAT DOUBLE PROP(
"units" "V/s"
"key" "node"
"tolerance" 0.000100000
)
"I/Sec" FLOAT DOUBLE PROP(
"units" "A/s"
"key" "node"
"tolerance" 1.00000e-06
)
"1/Sec" FLOAT DOUBLE PROP(
"units" "1/s"
"key" "node"
"tolerance" 0.000100000
)
"HOD" FLOAT DOUBLE PROP(
"units" ""
"key" "node"
"tolerance" 0.0100000
)
"Q" FLOAT DOUBLE PROP(
"units" "coul"
"key" "node"
"tolerance" 1.00000e-14
)
SWEEP
"time" "sweep" PROP(
"sweep_direction" 0
"units" "s"
"plot" 0
"grid" 1
)
TRACE
"iRESref:p" "I"
"iRESva:p" "I"
"noiref" "V"
"noiva" "V"
"top" "V"
"topref" "V"
"topva" "V"
"VTOP:p" "I"
VALUE
"time" 0.000000000000000e+00
"iRESref:p" -1.132483050479000e-18
"iRESva:p" -1.133330083426254e-18
"noiref" -1.132483050479000e-18
"noiva" -1.133330083426254e-18
"top" -1.133099690464601e-16
"topref" -1.132991270247352e-16
"topva" -1.132991270247352e-16
"VTOP:p" 2.266660166852508e-18
"time" 4.773269689737470e-09
"iRESref:p" 3.928855167969725e-06
"iRESva:p" 3.928855167969725e-06
"noiref" 3.928855167969725e-06
"noiva" 3.928855167969725e-06
"top" 3.928855167969726e-04
"topref" 3.928855167969726e-04
"topva" 3.928855167969726e-04
"VTOP:p" -7.857710335939452e-06
"time" 9.546539379474941e-09
"iRESref:p" 7.857649690278418e-06
"iRESva:p" 7.857649690278418e-06
"noiref" 7.857649690278418e-06
"noiva" 7.857649690278418e-06
"top" 7.857649690278418e-04
"topref" 7.857649690278418e-04
"topva" 7.857649690278418e-04
"VTOP:p" -1.571529938055684e-05
"time" 1.431980906921241e-08
"iRESref:p" 1.178632292220117e-05
"iRESva:p" 1.178632292220117e-05
"noiref" 1.178632292220117e-05
"noiva" 1.178632292220117e-05
"top" 1.178632292220117e-03
"topref" 1.178632292220117e-03
"topva" 1.178632292220117e-03
"VTOP:p" -2.357264584440234e-05
"time" 1.909307875894988e-08
"iRESref:p" 1.571481422088530e-05
"iRESva:p" 1.571481422088530e-05
"noiref" 1.571481422088530e-05
"noiva" 1.571481422088530e-05
"top" 1.571481422088530e-03
"topref" 1.571481422088530e-03
"topva" 1.571481422088530e-03
"VTOP:p" -3.142962844177060e-05
"time" 2.386634844868735e-08
"iRESref:p" 1.964306294628645e-05
"iRESva:p" 1.964306294628645e-05
"noiref" 1.964306294628645e-05
"noiva" 1.964306294628645e-05
"top" 1.964306294628645e-03
"topref" 1.964306294628645e-03
"topva" 1.964306294628645e-03
"VTOP:p" -3.928612589257291e-05
"time" 2.863961813842482e-08
"iRESref:p" 2.357100846210462e-05
"iRESva:p" 2.357100846210462e-05
"noiref" 2.357100846210462e-05
"noiva" 2.357100846210462e-05
"top" 2.357100846210462e-03
"topref" 2.357100846210462e-03
"topva" 2.357100846210462e-03
"VTOP:p" -4.714201692420923e-05
"time" 3.341288782816229e-08
"iRESref:p" 2.749859013672012e-05
"iRESva:p" 2.749859013672012e-05
"noiref" 2.749859013672012e-05
"noiva" 2.749859013672012e-05
"top" 2.749859013672012e-03
"topref" 2.749859013672012e-03
"topva" 2.749859013672012e-03
"VTOP:p" -5.499718027344023e-05
"time" 3.818615751789976e-08
"iRESref:p" 3.142574734412952e-05
"iRESva:p" 3.142574734412952e-05
"noiref" 3.142574734412952e-05
"noiva" 3.142574734412952e-05
"top" 3.142574734412951e-03
"topref" 3.142574734412951e-03
"topva" 3.142574734412951e-03
"VTOP:p" -6.285149468825904e-05
"time" 4.295942720763722e-08
"iRESref:p" 3.535241946488144e-05
"iRESva:p" 3.535241946488144e-05
"noiref" 3.535241946488144e-05
"noiva" 3.535241946488144e-05
"top" 3.535241946488144e-03
"topref" 3.535241946488144e-03
"topva" 3.535241946488144e-03
"VTOP:p" -7.070483892976288e-05
"time" 4.773269689737469e-08
"iRESref:p" 3.927854588701228e-05
"iRESva:p" 3.927854588701228e-05
"noiref" 3.927854588701228e-05
"noiva" 3.927854588701228e-05
"top" 3.927854588701228e-03
"topref" 3.927854588701228e-03
"topva" 3.927854588701228e-03
"VTOP:p" -7.855709177402456e-05
"time" 5.250596658711216e-08
"iRESref:p" 4.320406600698184e-05
"iRESva:p" 4.320406600698183e-05
"noiref" 4.320406600698184e-05
"noiva" 4.320406600698183e-05
"top" 4.320406600698184e-03
"topref" 4.320406600698184e-03
"topva" 4.320406600698184e-03
"VTOP:p" -8.640813201396367e-05
"time" 5.727923627684963e-08
"iRESref:p" 4.712891923060873e-05
"iRESva:p" 4.712891923060873e-05
"noiref" 4.712891923060873e-05
"noiva" 4.712891923060873e-05
"top" 4.712891923060873e-03
"topref" 4.712891923060873e-03
"topva" 4.712891923060873e-03
"VTOP:p" -9.425783846121745e-05
"time" 6.205250596658711e-08
"iRESref:p" 5.105304497400582e-05
"iRESva:p" 5.105304497400582e-05
"noiref" 5.105304497400582e-05
"noiva" 5.105304497400582e-05
"top" 5.105304497400582e-03
"topref" 5.105304497400582e-03
"topva" 5.105304497400582e-03
"VTOP:p" -1.021060899480116e-04
"time" 6.682577565632457e-08
"iRESref:p" 5.497638266451526e-05
"iRESva:p" 5.497638266451526e-05
"noiref" 5.497638266451526e-05
"noiva" 5.497638266451526e-05
"top" 5.497638266451526e-03
"topref" 5.497638266451526e-03
"topva" 5.497638266451526e-03
"VTOP:p" -1.099527653290305e-04
"time" 7.159904534606204e-08
"iRESref:p" 5.889887174164362e-05
"iRESva:p" 5.889887174164362e-05
"noiref" 5.889887174164362e-05
"noiva" 5.889887174164362e-05
"top" 5.889887174164362e-03
"topref" 5.889887174164362e-03
"topva" 5.889887174164362e-03
"VTOP:p" -1.177977434832872e-04
"time" 7.637231503579951e-08
"iRESref:p" 6.282045165799658e-05
"iRESva:p" 6.282045165799658e-05
"noiref" 6.282045165799658e-05
"noiva" 6.282045165799658e-05
"top" 6.282045165799659e-03
"topref" 6.282045165799659e-03
"topva" 6.282045165799659e-03
"VTOP:p" -1.256409033159932e-04
"time" 8.114558472553698e-08
"iRESref:p" 6.674106188021366e-05
"iRESva:p" 6.674106188021366e-05
"noiref" 6.674106188021366e-05
"noiva" 6.674106188021366e-05
"top" 6.674106188021366e-03
"topref" 6.674106188021366e-03
"topva" 6.674106188021366e-03
"VTOP:p" -1.334821237604273e-04
"time" 8.591885441527445e-08
"iRESref:p" 7.066064188990244e-05
"iRESva:p" 7.066064188990244e-05
"noiref" 7.066064188990244e-05
"noiva" 7.066064188990244e-05
"top" 7.066064188990244e-03
"topref" 7.066064188990244e-03
"topva" 7.066064188990244e-03
"VTOP:p" -1.413212837798049e-04
"time" 9.069212410501192e-08
"iRESref:p" 7.457913118457293e-05
"iRESva:p" 7.457913118457293e-05
"noiref" 7.457913118457293e-05
"noiva" 7.457913118457293e-05
"top" 7.457913118457293e-03
"topref" 7.457913118457293e-03
"topva" 7.457913118457293e-03
"VTOP:p" -1.491582623691459e-04
"time" 9.546539379474939e-08
"iRESref:p" 7.849646927857131e-05
"iRESva:p" 7.849646927857131e-05
"noiref" 7.849646927857131e-05
"noiva" 7.849646927857131e-05
"top" 7.849646927857131e-03
"topref" 7.849646927857131e-03
"topva" 7.849646927857131e-03
"VTOP:p" -1.569929385571426e-04
"time" 1.002386634844869e-07
"iRESref:p" 8.241259570401369e-05
"iRESva:p" 8.241259570401367e-05
"noiref" 8.241259570401369e-05
"noiva" 8.241259570401367e-05
"top" 8.241259570401368e-03
"topref" 8.241259570401368e-03
"topva" 8.241259570401368e-03
"VTOP:p" -1.648251914080273e-04
"time" 1.050119331742243e-07
"iRESref:p" 8.632745001171938e-05
"iRESva:p" 8.632745001171938e-05
"noiref" 8.632745001171938e-05
"noiva" 8.632745001171938e-05
"top" 8.632745001171938e-03
"topref" 8.632745001171938e-03
"topva" 8.632745001171938e-03
"VTOP:p" -1.726549000234388e-04
"time" 1.097852028639618e-07
"iRESref:p" 9.024097177214416e-05
"iRESva:p" 9.024097177214415e-05
"noiref" 9.024097177214416e-05
"noiva" 9.024097177214415e-05
"top" 9.024097177214415e-03
"topref" 9.024097177214415e-03
"topva" 9.024097177214415e-03
"VTOP:p" -1.804819435442883e-04
"time" 1.145584725536993e-07
"iRESref:p" 9.415310057631284e-05
"iRESva:p" 9.415310057631283e-05
"noiref" 9.415310057631284e-05
"noiva" 9.415310057631283e-05
"top" 9.415310057631283e-03
"topref" 9.415310057631283e-03
"topva" 9.415310057631283e-03
"VTOP:p" -1.883062011526257e-04
"time" 1.193317422434367e-07
"iRESref:p" 9.806377603675198e-05
"iRESva:p" 9.806377603675198e-05
"noiref" 9.806377603675198e-05
"noiva" 9.806377603675198e-05
"top" 9.806377603675196e-03
"topref" 9.806377603675196e-03
"topva" 9.806377603675196e-03
"VTOP:p" -1.961275520735040e-04
"time" 1.241050119331742e-07
"iRESref:p" 1.019729377884218e-04
"iRESva:p" 1.019729377884218e-04
"noiref" 1.019729377884218e-04
"noiva" 1.019729377884218e-04
"top" 1.019729377884218e-02
"topref" 1.019729377884218e-02
"topva" 1.019729377884218e-02
"VTOP:p" -2.039458755768436e-04
"time" 1.288782816229117e-07
"iRESref:p" 1.058805254896480e-04
"iRESva:p" 1.058805254896480e-04
"noiref" 1.058805254896480e-04
"noiva" 1.058805254896480e-04
"top" 1.058805254896480e-02
"topref" 1.058805254896480e-02
"topva" 1.058805254896480e-02
"VTOP:p" -2.117610509792961e-04
"time" 1.336515513126492e-07
"iRESref:p" 1.097864788230536e-04
"iRESva:p" 1.097864788230536e-04
"noiref" 1.097864788230536e-04
"noiva" 1.097864788230536e-04
"top" 1.097864788230536e-02
"topref" 1.097864788230536e-02
"topva" 1.097864788230536e-02
"VTOP:p" -2.195729576461071e-04
"time" 1.384248210023867e-07
"iRESref:p" 1.136907374964892e-04
"iRESva:p" 1.136907374964892e-04
"noiref" 1.136907374964892e-04
"noiva" 1.136907374964892e-04
"top" 1.136907374964892e-02
"topref" 1.136907374964892e-02
"topva" 1.136907374964892e-02
"VTOP:p" -2.273814749929784e-04
"time" 1.431980906921241e-07
"iRESref:p" 1.175932412439644e-04
"iRESva:p" 1.175932412439644e-04
"noiref" 1.175932412439644e-04
"noiva" 1.175932412439644e-04
"top" 1.175932412439644e-02
"topref" 1.175932412439644e-02
"topva" 1.175932412439644e-02
"VTOP:p" -2.351864824879289e-04
"time" 1.479713603818616e-07
"iRESref:p" 1.214939298265778e-04
"iRESva:p" 1.214939298265778e-04
"noiref" 1.214939298265778e-04
"noiva" 1.214939298265778e-04
"top" 1.214939298265778e-02
"topref" 1.214939298265778e-02
"topva" 1.214939298265778e-02
"VTOP:p" -2.429878596531557e-04
"time" 1.527446300715991e-07
"iRESref:p" 1.253927430334466e-04
"iRESva:p" 1.253927430334466e-04
"noiref" 1.253927430334466e-04
"noiva" 1.253927430334466e-04
"top" 1.253927430334466e-02
"topref" 1.253927430334466e-02
"topva" 1.253927430334466e-02
"VTOP:p" -2.507854860668933e-04
"time" 1.575178997613366e-07
"iRESref:p" 1.292896206826365e-04
"iRESva:p" 1.292896206826365e-04
"noiref" 1.292896206826365e-04
"noiva" 1.292896206826365e-04
"top" 1.292896206826365e-02
"topref" 1.292896206826365e-02
"topva" 1.292896206826365e-02
"VTOP:p" -2.585792413652729e-04
"time" 1.622911694510741e-07
"iRESref:p" 1.331845026220900e-04
"iRESva:p" 1.331845026220900e-04
"noiref" 1.331845026220900e-04
"noiva" 1.331845026220900e-04
"top" 1.331845026220900e-02
"topref" 1.331845026220900e-02
"topva" 1.331845026220900e-02
"VTOP:p" -2.663690052441801e-04
"time" 1.670644391408115e-07
"iRESref:p" 1.370773287305558e-04
"iRESva:p" 1.370773287305558e-04
"noiref" 1.370773287305558e-04
"noiva" 1.370773287305558e-04
"top" 1.370773287305558e-02
"topref" 1.370773287305558e-02
"topva" 1.370773287305558e-02
"VTOP:p" -2.741546574611116e-04
"time" 1.718377088305490e-07
"iRESref:p" 1.409680389185159e-04
"iRESva:p" 1.409680389185159e-04
"noiref" 1.409680389185159e-04
"noiva" 1.409680389185159e-04
"top" 1.409680389185159e-02
"topref" 1.409680389185159e-02
"topva" 1.409680389185159e-02
"VTOP:p" -2.819360778370318e-04
"time" 1.766109785202865e-07
"iRESref:p" 1.448565731291139e-04
"iRESva:p" 1.448565731291139e-04
"noiref" 1.448565731291139e-04
"noiva" 1.448565731291139e-04
"top" 1.448565731291139e-02
"topref" 1.448565731291139e-02
"topva" 1.448565731291139e-02
"VTOP:p" -2.897131462582277e-04
"time" 1.813842482100240e-07
"iRESref:p" 1.487428713390814e-04
"iRESva:p" 1.487428713390814e-04
"noiref" 1.487428713390814e-04
"noiva" 1.487428713390814e-04
"top" 1.487428713390814e-02
"topref" 1.487428713390814e-02
"topva" 1.487428713390814e-02
"VTOP:p" -2.974857426781628e-04
"time" 1.861575178997615e-07
"iRESref:p" 1.526268735596651e-04
"iRESva:p" 1.526268735596651e-04
"noiref" 1.526268735596651e-04
"noiva" 1.526268735596651e-04
"top" 1.526268735596651e-02
"topref" 1.526268735596651e-02
"topva" 1.526268735596651e-02
"VTOP:p" -3.052537471193302e-04
"time" 1.909307875894990e-07
"iRESref:p" 1.565085198375523e-04
"iRESva:p" 1.565085198375523e-04
"noiref" 1.565085198375523e-04
"noiva" 1.565085198375523e-04
"top" 1.565085198375523e-02
"topref" 1.565085198375523e-02
"topva" 1.565085198375523e-02
"VTOP:p" -3.130170396751046e-04
"time" 1.957040572792364e-07
"iRESref:p" 1.603877502557967e-04
"iRESva:p" 1.603877502557967e-04
"noiref" 1.603877502557967e-04
"noiva" 1.603877502557967e-04
"top" 1.603877502557967e-02
"topref" 1.603877502557967e-02
"topva" 1.603877502557967e-02
"VTOP:p" -3.207755005115933e-04
"time" 2.004773269689739e-07
"iRESref:p" 1.642645049347429e-04
"iRESva:p" 1.642645049347429e-04
"noiref" 1.642645049347429e-04
"noiva" 1.642645049347429e-04
"top" 1.642645049347429e-02
"topref" 1.642645049347429e-02
"topva" 1.642645049347429e-02
"VTOP:p" -3.285290098694859e-04
"time" 2.052505966587114e-07
"iRESref:p" 1.681387240329512e-04
"iRESva:p" 1.681387240329512e-04
"noiref" 1.681387240329512e-04
"noiva" 1.681387240329512e-04
"top" 1.681387240329512e-02
"topref" 1.681387240329512e-02
"topva" 1.681387240329512e-02
"VTOP:p" -3.362774480659025e-04
"time" 2.100238663484489e-07
"iRESref:p" 1.720103477481209e-04
"iRESva:p" 1.720103477481209e-04
"noiref" 1.720103477481209e-04
"noiva" 1.720103477481209e-04
"top" 1.720103477481209e-02
"topref" 1.720103477481209e-02
"topva" 1.720103477481209e-02
"VTOP:p" -3.440206954962418e-04
"time" 2.147971360381864e-07
"iRESref:p" 1.758793163180134e-04
"iRESva:p" 1.758793163180134e-04
"noiref" 1.758793163180134e-04
"noiva" 1.758793163180134e-04
"top" 1.758793163180134e-02
"topref" 1.758793163180134e-02
"topva" 1.758793163180134e-02
"VTOP:p" -3.517586326360268e-04
"time" 2.195704057279238e-07
"iRESref:p" 1.797455700213750e-04
"iRESva:p" 1.797455700213750e-04
"noiref" 1.797455700213750e-04
"noiva" 1.797455700213750e-04
"top" 1.797455700213750e-02
"topref" 1.797455700213750e-02
"topva" 1.797455700213750e-02
"VTOP:p" -3.594911400427501e-04
"time" 2.243436754176613e-07
"iRESref:p" 1.836090491788586e-04
"iRESva:p" 1.836090491788586e-04
"noiref" 1.836090491788586e-04
"noiva" 1.836090491788586e-04
"top" 1.836090491788586e-02
"topref" 1.836090491788586e-02
"topva" 1.836090491788586e-02
"VTOP:p" -3.672180983577173e-04
"time" 2.291169451073988e-07
"iRESref:p" 1.874696941539448e-04
"iRESva:p" 1.874696941539448e-04
"noiref" 1.874696941539448e-04
"noiva" 1.874696941539448e-04
"top" 1.874696941539448e-02
"topref" 1.874696941539448e-02
"topva" 1.874696941539448e-02
"VTOP:p" -3.749393883078896e-04
"time" 2.338902147971363e-07
"iRESref:p" 1.913274453538625e-04
"iRESva:p" 1.913274453538624e-04
"noiref" 1.913274453538625e-04
"noiva" 1.913274453538624e-04
"top" 1.913274453538625e-02
"topref" 1.913274453538625e-02
"topva" 1.913274453538625e-02
"VTOP:p" -3.826548907077249e-04
"time" 2.386634844868738e-07
"iRESref:p" 1.951822432305087e-04
"iRESva:p" 1.951822432305087e-04
"noiref" 1.951822432305087e-04
"noiva" 1.951822432305087e-04
"top" 1.951822432305087e-02
"topref" 1.951822432305087e-02
"topva" 1.951822432305087e-02
"VTOP:p" -3.903644864610175e-04
"time" 2.434367541766112e-07
"iRESref:p" 1.990340282813682e-04
"iRESva:p" 1.990340282813682e-04
"noiref" 1.990340282813682e-04
"noiva" 1.990340282813682e-04
"top" 1.990340282813682e-02
"topref" 1.990340282813682e-02
"topva" 1.990340282813682e-02
"VTOP:p" -3.980680565627365e-04
"time" 2.482100238663487e-07
"iRESref:p" 2.028827410504314e-04
"iRESva:p" 2.028827410504313e-04
"noiref" 2.028827410504314e-04
"noiva" 2.028827410504313e-04
"top" 2.028827410504314e-02
"topref" 2.028827410504314e-02
"topva" 2.028827410504314e-02
"VTOP:p" -4.057654821008627e-04
"time" 2.529832935560861e-07
"iRESref:p" 2.067283221291121e-04
"iRESva:p" 2.067283221291121e-04
"noiref" 2.067283221291121e-04
"noiva" 2.067283221291121e-04
"top" 2.067283221291120e-02
"topref" 2.067283221291120e-02
"topva" 2.067283221291120e-02
"VTOP:p" -4.134566442582241e-04
"time" 2.577565632458236e-07
"iRESref:p" 2.105707121571651e-04
"iRESva:p" 2.105707121571651e-04
"noiref" 2.105707121571651e-04
"noiva" 2.105707121571651e-04
"top" 2.105707121571651e-02
"topref" 2.105707121571651e-02
"topva" 2.105707121571651e-02
"VTOP:p" -4.211414243143302e-04
"time" 2.625298329355611e-07
"iRESref:p" 2.144098518236021e-04
"iRESva:p" 2.144098518236021e-04
"noiref" 2.144098518236021e-04
"noiva" 2.144098518236021e-04
"top" 2.144098518236021e-02
"topref" 2.144098518236021e-02
"topva" 2.144098518236021e-02
"VTOP:p" -4.288197036472042e-04
"time" 2.673031026252985e-07
"iRESref:p" 2.182456818676071e-04
"iRESva:p" 2.182456818676071e-04
"noiref" 2.182456818676071e-04
"noiva" 2.182456818676071e-04
"top" 2.182456818676071e-02
"topref" 2.182456818676071e-02
"topva" 2.182456818676071e-02
"VTOP:p" -4.364913637352142e-04
"time" 2.720763723150360e-07
"iRESref:p" 2.220781430794514e-04
"iRESva:p" 2.220781430794514e-04
"noiref" 2.220781430794514e-04
"noiva" 2.220781430794514e-04
"top" 2.220781430794514e-02
"topref" 2.220781430794514e-02
"topva" 2.220781430794514e-02
"VTOP:p" -4.441562861589027e-04
"time" 2.768496420047734e-07
"iRESref:p" 2.259071763014075e-04
"iRESva:p" 2.259071763014075e-04
"noiref" 2.259071763014075e-04
"noiva" 2.259071763014075e-04
"top" 2.259071763014075e-02
"topref" 2.259071763014075e-02
"topva" 2.259071763014075e-02
"VTOP:p" -4.518143526028150e-04
"time" 2.816229116945109e-07
"iRESref:p" 2.297327224286622e-04
"iRESva:p" 2.297327224286622e-04
"noiref" 2.297327224286622e-04
"noiva" 2.297327224286622e-04
"top" 2.297327224286622e-02
"topref" 2.297327224286622e-02
"topva" 2.297327224286622e-02
"VTOP:p" -4.594654448573243e-04
"time" 2.863961813842483e-07
"iRESref:p" 2.335547224102288e-04
"iRESva:p" 2.335547224102288e-04
"noiref" 2.335547224102288e-04
"noiva" 2.335547224102288e-04
"top" 2.335547224102288e-02
"topref" 2.335547224102288e-02
"topva" 2.335547224102288e-02
"VTOP:p" -4.671094448204575e-04
"time" 2.911694510739858e-07
"iRESref:p" 2.373731172498591e-04
"iRESva:p" 2.373731172498591e-04
"noiref" 2.373731172498591e-04
"noiva" 2.373731172498591e-04
"top" 2.373731172498591e-02
"topref" 2.373731172498591e-02
"topva" 2.373731172498591e-02
"VTOP:p" -4.747462344997181e-04
"time" 2.959427207637232e-07
"iRESref:p" 2.411878480069534e-04
"iRESva:p" 2.411878480069534e-04
"noiref" 2.411878480069534e-04
"noiva" 2.411878480069534e-04
"top" 2.411878480069534e-02
"topref" 2.411878480069534e-02
"topva" 2.411878480069534e-02
"VTOP:p" -4.823756960139067e-04
"time" 3.007159904534607e-07
"iRESref:p" 2.449988557974709e-04
"iRESva:p" 2.449988557974709e-04
"noiref" 2.449988557974709e-04
"noiva" 2.449988557974709e-04
"top" 2.449988557974709e-02
"topref" 2.449988557974709e-02
"topva" 2.449988557974709e-02
"VTOP:p" -4.899977115949418e-04
"time" 3.054892601431982e-07
"iRESref:p" 2.488060817948382e-04
"iRESva:p" 2.488060817948382e-04
"noiref" 2.488060817948382e-04
"noiva" 2.488060817948382e-04
"top" 2.488060817948382e-02
"topref" 2.488060817948382e-02
"topva" 2.488060817948382e-02
"VTOP:p" -4.976121635896765e-04
"time" 3.102625298329356e-07
"iRESref:p" 2.526094672308577e-04
"iRESva:p" 2.526094672308577e-04
"noiref" 2.526094672308577e-04
"noiva" 2.526094672308577e-04
"top" 2.526094672308577e-02
"topref" 2.526094672308577e-02
"topva" 2.526094672308577e-02
"VTOP:p" -5.052189344617154e-04
"time" 3.150357995226731e-07
"iRESref:p" 2.564089533966143e-04
"iRESva:p" 2.564089533966143e-04
"noiref" 2.564089533966143e-04
"noiva" 2.564089533966143e-04
"top" 2.564089533966143e-02
"topref" 2.564089533966143e-02
"topva" 2.564089533966143e-02
"VTOP:p" -5.128179067932286e-04
"time" 3.198090692124105e-07
"iRESref:p" 2.602044816433820e-04
"iRESva:p" 2.602044816433820e-04
"noiref" 2.602044816433820e-04
"noiva" 2.602044816433820e-04
"top" 2.602044816433820e-02
"topref" 2.602044816433820e-02
"topva" 2.602044816433820e-02
"VTOP:p" -5.204089632867640e-04
"time" 3.245823389021480e-07
"iRESref:p" 2.639959933835293e-04
"iRESva:p" 2.639959933835292e-04
"noiref" 2.639959933835293e-04
"noiva" 2.639959933835292e-04
"top" 2.639959933835293e-02
"topref" 2.639959933835293e-02
"topva" 2.639959933835293e-02
"VTOP:p" -5.279919867670586e-04
"time" 3.293556085918854e-07
"iRESref:p" 2.677834300914231e-04
"iRESva:p" 2.677834300914231e-04
"noiref" 2.677834300914231e-04
"noiva" 2.677834300914231e-04
"top" 2.677834300914231e-02
"topref" 2.677834300914231e-02
"topva" 2.677834300914231e-02
"VTOP:p" -5.355668601828462e-04
"time" 3.341288782816229e-07
"iRESref:p" 2.715667333043324e-04
"iRESva:p" 2.715667333043323e-04
"noiref" 2.715667333043324e-04
"noiva" 2.715667333043323e-04
"top" 2.715667333043324e-02
"topref" 2.715667333043324e-02
"topva" 2.715667333043324e-02
"VTOP:p" -5.431334666086648e-04
"time" 3.389021479713603e-07
"iRESref:p" 2.753458446233306e-04
"iRESva:p" 2.753458446233306e-04
"noiref" 2.753458446233306e-04
"noiva" 2.753458446233306e-04
"top" 2.753458446233306e-02
"topref" 2.753458446233306e-02
"topva" 2.753458446233306e-02
"VTOP:p" -5.506916892466612e-04
"time" 3.436754176610978e-07
"iRESref:p" 2.791207057141972e-04
"iRESva:p" 2.791207057141972e-04
"noiref" 2.791207057141972e-04
"noiva" 2.791207057141972e-04
"top" 2.791207057141972e-02
"topref" 2.791207057141972e-02
"topva" 2.791207057141972e-02
"VTOP:p" -5.582414114283944e-04
"time" 3.484486873508353e-07
"iRESref:p" 2.828912583083180e-04
"iRESva:p" 2.828912583083180e-04
"noiref" 2.828912583083180e-04
"noiva" 2.828912583083180e-04
"top" 2.828912583083180e-02
"topref" 2.828912583083180e-02
"topva" 2.828912583083180e-02
"VTOP:p" -5.657825166166360e-04
"time" 3.532219570405727e-07
"iRESref:p" 2.866574442035845e-04
"iRESva:p" 2.866574442035845e-04
"noiref" 2.866574442035845e-04
"noiva" 2.866574442035845e-04
"top" 2.866574442035845e-02
"topref" 2.866574442035845e-02
"topva" 2.866574442035845e-02
"VTOP:p" -5.733148884071689e-04
"time" 3.579952267303102e-07
"iRESref:p" 2.904192052652924e-04
"iRESva:p" 2.904192052652924e-04
"noiref" 2.904192052652924e-04
"noiva" 2.904192052652924e-04
"top" 2.904192052652924e-02
"topref" 2.904192052652924e-02
"topva" 2.904192052652924e-02
"VTOP:p" -5.808384105305849e-04
"time" 3.627684964200476e-07
"iRESref:p" 2.941764834270392e-04
"iRESva:p" 2.941764834270392e-04
"noiref" 2.941764834270392e-04
"noiva" 2.941764834270392e-04
"top" 2.941764834270391e-02
"topref" 2.941764834270391e-02
"topva" 2.941764834270391e-02
"VTOP:p" -5.883529668540783e-04
"time" 3.675417661097851e-07
"iRESref:p" 2.979292206916199e-04
"iRESva:p" 2.979292206916199e-04
"noiref" 2.979292206916199e-04
"noiva" 2.979292206916199e-04
"top" 2.979292206916199e-02
"topref" 2.979292206916199e-02
"topva" 2.979292206916199e-02
"VTOP:p" -5.958584413832397e-04
"time" 3.723150357995225e-07
"iRESref:p" 3.016773591319229e-04
"iRESva:p" 3.016773591319229e-04
"noiref" 3.016773591319229e-04
"noiva" 3.016773591319229e-04
"top" 3.016773591319229e-02
"topref" 3.016773591319229e-02
"topva" 3.016773591319229e-02
"VTOP:p" -6.033547182638458e-04
"time" 3.770883054892600e-07
"iRESref:p" 3.054208408918239e-04
"iRESva:p" 3.054208408918239e-04
"noiref" 3.054208408918239e-04
"noiva" 3.054208408918239e-04
"top" 3.054208408918239e-02
"topref" 3.054208408918239e-02
"topva" 3.054208408918239e-02
"VTOP:p" -6.108416817836479e-04
"time" 3.818615751789974e-07
"iRESref:p" 3.091596081870788e-04
"iRESva:p" 3.091596081870788e-04
"noiref" 3.091596081870788e-04
"noiva" 3.091596081870788e-04
"top" 3.091596081870787e-02
"topref" 3.091596081870787e-02
"topva" 3.091596081870787e-02
"VTOP:p" -6.183192163741575e-04
"time" 3.866348448687349e-07
"iRESref:p" 3.128936033062156e-04
"iRESva:p" 3.128936033062156e-04
"noiref" 3.128936033062156e-04
"noiva" 3.128936033062156e-04
"top" 3.128936033062156e-02
"topref" 3.128936033062156e-02
"topva" 3.128936033062156e-02
"VTOP:p" -6.257872066124312e-04
"time" 3.914081145584724e-07
"iRESref:p" 3.166227686114259e-04
"iRESva:p" 3.166227686114259e-04
"noiref" 3.166227686114259e-04
"noiva" 3.166227686114259e-04
"top" 3.166227686114259e-02
"topref" 3.166227686114259e-02
"topva" 3.166227686114259e-02
"VTOP:p" -6.332455372228519e-04
"time" 3.961813842482098e-07
"iRESref:p" 3.203470465394540e-04
"iRESva:p" 3.203470465394539e-04
"noiref" 3.203470465394540e-04
"noiva" 3.203470465394539e-04
"top" 3.203470465394540e-02
"topref" 3.203470465394540e-02
"topva" 3.203470465394540e-02
"VTOP:p" -6.406940930789079e-04
"time" 4.009546539379473e-07
"iRESref:p" 3.240663796024852e-04
"iRESva:p" 3.240663796024852e-04
"noiref" 3.240663796024852e-04
"noiva" 3.240663796024852e-04
"top" 3.240663796024852e-02
"topref" 3.240663796024852e-02
"topva" 3.240663796024852e-02
"VTOP:p" -6.481327592049704e-04
"time" 4.057279236276847e-07
"iRESref:p" 3.277807103890340e-04
"iRESva:p" 3.277807103890340e-04
"noiref" 3.277807103890340e-04
"noiva" 3.277807103890340e-04
"top" 3.277807103890340e-02
"topref" 3.277807103890340e-02
"topva" 3.277807103890340e-02
"VTOP:p" -6.555614207780680e-04
"time" 4.105011933174222e-07
"iRESref:p" 3.314899815648297e-04
"iRESva:p" 3.314899815648297e-04
"noiref" 3.314899815648297e-04
"noiva" 3.314899815648297e-04
"top" 3.314899815648296e-02
"topref" 3.314899815648296e-02
"topva" 3.314899815648296e-02
"VTOP:p" -6.629799631296593e-04
"time" 4.152744630071596e-07
"iRESref:p" 3.351941358737014e-04
"iRESva:p" 3.351941358737013e-04
"noiref" 3.351941358737014e-04
"noiva" 3.351941358737013e-04
"top" 3.351941358737014e-02
"topref" 3.351941358737014e-02
"topva" 3.351941358737014e-02
"VTOP:p" -6.703882717474027e-04
"time" 4.200477326968971e-07
"iRESref:p" 3.388931161384622e-04
"iRESva:p" 3.388931161384622e-04
"noiref" 3.388931161384622e-04
"noiva" 3.388931161384622e-04
"top" 3.388931161384622e-02
"topref" 3.388931161384622e-02
"topva" 3.388931161384622e-02
"VTOP:p" -6.777862322769244e-04
"time" 4.248210023866345e-07
"iRESref:p" 3.425868652617913e-04
"iRESva:p" 3.425868652617913e-04
"noiref" 3.425868652617913e-04
"noiva" 3.425868652617913e-04
"top" 3.425868652617913e-02
"topref" 3.425868652617913e-02
"topva" 3.425868652617913e-02
"VTOP:p" -6.851737305235826e-04
"time" 4.295942720763720e-07
"iRESref:p" 3.462753262271160e-04
"iRESva:p" 3.462753262271160e-04
"noiref" 3.462753262271160e-04
"noiva" 3.462753262271160e-04
"top" 3.462753262271160e-02
"topref" 3.462753262271160e-02
"topva" 3.462753262271160e-02
"VTOP:p" -6.925506524542320e-04
"time" 4.343675417661094e-07
"iRESref:p" 3.499584420994910e-04
"iRESva:p" 3.499584420994910e-04
"noiref" 3.499584420994910e-04
"noiva" 3.499584420994910e-04
"top" 3.499584420994910e-02
"topref" 3.499584420994910e-02
"topva" 3.499584420994910e-02
"VTOP:p" -6.999168841989819e-04
"time" 4.391408114558469e-07
"iRESref:p" 3.536361560264778e-04
"iRESva:p" 3.536361560264778e-04
"noiref" 3.536361560264778e-04
"noiva" 3.536361560264778e-04
"top" 3.536361560264778e-02
"topref" 3.536361560264778e-02
"topva" 3.536361560264778e-02
"VTOP:p" -7.072723120529555e-04
"time" 4.439140811455844e-07
"iRESref:p" 3.573084112390222e-04
"iRESva:p" 3.573084112390222e-04
"noiref" 3.573084112390222e-04
"noiva" 3.573084112390222e-04
"top" 3.573084112390223e-02
"topref" 3.573084112390223e-02
"topva" 3.573084112390223e-02
"VTOP:p" -7.146168224780445e-04
"time" 4.486873508353218e-07
"iRESref:p" 3.609751510523306e-04
"iRESva:p" 3.609751510523306e-04
"noiref" 3.609751510523306e-04
"noiva" 3.609751510523306e-04
"top" 3.609751510523306e-02
"topref" 3.609751510523306e-02
"topva" 3.609751510523306e-02
"VTOP:p" -7.219503021046611e-04
"time" 4.534606205250593e-07
"iRESref:p" 3.646363188667445e-04
"iRESva:p" 3.646363188667445e-04
"noiref" 3.646363188667445e-04
"noiva" 3.646363188667445e-04
"top" 3.646363188667445e-02
"topref" 3.646363188667445e-02
"topva" 3.646363188667445e-02
"VTOP:p" -7.292726377334889e-04
"time" 4.582338902147967e-07
"iRESref:p" 3.682918581686148e-04
"iRESva:p" 3.682918581686148e-04
"noiref" 3.682918581686148e-04
"noiva" 3.682918581686148e-04
"top" 3.682918581686148e-02
"topref" 3.682918581686148e-02
"topva" 3.682918581686148e-02
"VTOP:p" -7.365837163372296e-04
"time" 4.630071599045342e-07
"iRESref:p" 3.719417125311743e-04
"iRESva:p" 3.719417125311743e-04
"noiref" 3.719417125311743e-04
"noiva" 3.719417125311743e-04
"top" 3.719417125311743e-02
"topref" 3.719417125311743e-02