HEADER
"PSFversion" "1.00"
"simulator" "spectre"
"version" "20.1.0.068"
"date" "1:07:56 PM, Wed Nov 10, 2021"
"design" ""
"analysis type" "sp"
"analysis name" "sparams"
"analysis description" "S-Parameter Analysis `sparams': freq = (100 Hz -> 1 GHz)"
"xVecSorted" "ascending"
"tolerance.relative" 0.00100000
"mode" "ss"
"number of ports" 2
"P1:r" 50.0000
"P1:num" 1
"P1:units" "Ohm"
"P2:r" 50.0000
"P2:num" 2
"P2:units" "Ohm"
TYPE
"sweep" FLOAT DOUBLE PROP(
"key" "sweep"
)
"S-Param" COMPLEX DOUBLE PROP(
"key" "SP"
)
SWEEP
"freq" "sweep" PROP(
"sweep_direction" 0
"units" "Hz"
)
TRACE
"s11" "S-Param"
"s21" "S-Param"
"s12" "S-Param"
"s22" "S-Param"
VALUE
"freq" 100.000
"s11" (0.000359846 2.77630e-06)
"s21" (0.999640 -2.77630e-06)
"s12" (0.999640 -2.77630e-06)
"s22" (0.000359846 2.77630e-06)
"freq" 102.329
"s11" (0.000359846 2.84097e-06)
"s21" (0.999640 -2.84097e-06)
"s12" (0.999640 -2.84097e-06)
"s22" (0.000359846 2.84097e-06)
"freq" 104.713
"s11" (0.000359846 2.90715e-06)
"s21" (0.999640 -2.90715e-06)
"s12" (0.999640 -2.90715e-06)
"s22" (0.000359846 2.90715e-06)
"freq" 107.152
"s11" (0.000359846 2.97486e-06)
"s21" (0.999640 -2.97486e-06)
"s12" (0.999640 -2.97486e-06)
"s22" (0.000359846 2.97486e-06)
"freq" 109.648
"s11" (0.000359846 3.04416e-06)
"s21" (0.999640 -3.04416e-06)
"s12" (0.999640 -3.04416e-06)
"s22" (0.000359846 3.04416e-06)
"freq" 112.202
"s11" (0.000359846 3.11506e-06)
"s21" (0.999640 -3.11506e-06)
"s12" (0.999640 -3.11506e-06)
"s22" (0.000359846 3.11506e-06)
"freq" 114.815
"s11" (0.000359846 3.18762e-06)
"s21" (0.999640 -3.18762e-06)
"s12" (0.999640 -3.18762e-06)
"s22" (0.000359846 3.18762e-06)
"freq" 117.490
"s11" (0.000359846 3.26187e-06)
"s21" (0.999640 -3.26187e-06)
"s12" (0.999640 -3.26187e-06)
"s22" (0.000359846 3.26187e-06)
"freq" 120.226
"s11" (0.000359846 3.33785e-06)
"s21" (0.999640 -3.33785e-06)
"s12" (0.999640 -3.33785e-06)
"s22" (0.000359846 3.33785e-06)
"freq" 123.027
"s11" (0.000359846 3.41560e-06)
"s21" (0.999640 -3.41560e-06)
"s12" (0.999640 -3.41560e-06)
"s22" (0.000359846 3.41560e-06)
"freq" 125.893
"s11" (0.000359846 3.49516e-06)
"s21" (0.999640 -3.49516e-06)
"s12" (0.999640 -3.49516e-06)
"s22" (0.000359846 3.49516e-06)
"freq" 128.825
"s11" (0.000359846 3.57657e-06)
"s21" (0.999640 -3.57657e-06)
"s12" (0.999640 -3.57657e-06)
"s22" (0.000359846 3.57657e-06)
"freq" 131.826
"s11" (0.000359846 3.65988e-06)
"s21" (0.999640 -3.65988e-06)
"s12" (0.999640 -3.65988e-06)
"s22" (0.000359846 3.65988e-06)
"freq" 134.896
"s11" (0.000359846 3.74513e-06)
"s21" (0.999640 -3.74513e-06)
"s12" (0.999640 -3.74513e-06)
"s22" (0.000359846 3.74513e-06)
"freq" 138.038
"s11" (0.000359846 3.83237e-06)
"s21" (0.999640 -3.83237e-06)
"s12" (0.999640 -3.83237e-06)
"s22" (0.000359846 3.83237e-06)
"freq" 141.254
"s11" (0.000359846 3.92163e-06)
"s21" (0.999640 -3.92163e-06)
"s12" (0.999640 -3.92163e-06)
"s22" (0.000359846 3.92163e-06)
"freq" 144.544
"s11" (0.000359846 4.01298e-06)
"s21" (0.999640 -4.01298e-06)
"s12" (0.999640 -4.01298e-06)
"s22" (0.000359846 4.01298e-06)
"freq" 147.911
"s11" (0.000359846 4.10645e-06)
"s21" (0.999640 -4.10645e-06)
"s12" (0.999640 -4.10645e-06)
"s22" (0.000359846 4.10645e-06)
"freq" 151.356
"s11" (0.000359846 4.20211e-06)
"s21" (0.999640 -4.20211e-06)
"s12" (0.999640 -4.20211e-06)
"s22" (0.000359846 4.20211e-06)
"freq" 154.882
"s11" (0.000359846 4.29999e-06)
"s21" (0.999640 -4.29999e-06)
"s12" (0.999640 -4.29999e-06)
"s22" (0.000359846 4.29999e-06)
"freq" 158.489
"s11" (0.000359846 4.40015e-06)
"s21" (0.999640 -4.40015e-06)
"s12" (0.999640 -4.40015e-06)
"s22" (0.000359846 4.40015e-06)
"freq" 162.181
"s11" (0.000359846 4.50264e-06)
"s21" (0.999640 -4.50264e-06)
"s12" (0.999640 -4.50264e-06)
"s22" (0.000359846 4.50264e-06)
"freq" 165.959
"s11" (0.000359846 4.60752e-06)
"s21" (0.999640 -4.60752e-06)
"s12" (0.999640 -4.60752e-06)
"s22" (0.000359846 4.60752e-06)
"freq" 169.824
"s11" (0.000359846 4.71484e-06)
"s21" (0.999640 -4.71484e-06)
"s12" (0.999640 -4.71484e-06)
"s22" (0.000359846 4.71484e-06)
"freq" 173.780
"s11" (0.000359846 4.82466e-06)
"s21" (0.999640 -4.82466e-06)
"s12" (0.999640 -4.82466e-06)
"s22" (0.000359846 4.82466e-06)
"freq" 177.828
"s11" (0.000359846 4.93704e-06)
"s21" (0.999640 -4.93704e-06)
"s12" (0.999640 -4.93704e-06)
"s22" (0.000359846 4.93704e-06)
"freq" 181.970
"s11" (0.000359846 5.05204e-06)
"s21" (0.999640 -5.05204e-06)
"s12" (0.999640 -5.05204e-06)
"s22" (0.000359846 5.05204e-06)
"freq" 186.209
"s11" (0.000359846 5.16972e-06)
"s21" (0.999640 -5.16972e-06)
"s12" (0.999640 -5.16972e-06)
"s22" (0.000359846 5.16972e-06)
"freq" 190.546
"s11" (0.000359846 5.29014e-06)
"s21" (0.999640 -5.29014e-06)
"s12" (0.999640 -5.29014e-06)
"s22" (0.000359846 5.29014e-06)
"freq" 194.984
"s11" (0.000359846 5.41336e-06)
"s21" (0.999640 -5.41336e-06)
"s12" (0.999640 -5.41336e-06)
"s22" (0.000359846 5.41336e-06)
"freq" 199.526
"s11" (0.000359846 5.53946e-06)
"s21" (0.999640 -5.53946e-06)
"s12" (0.999640 -5.53946e-06)
"s22" (0.000359846 5.53946e-06)
"freq" 204.174
"s11" (0.000359846 5.66849e-06)
"s21" (0.999640 -5.66849e-06)
"s12" (0.999640 -5.66849e-06)
"s22" (0.000359846 5.66849e-06)
"freq" 208.930
"s11" (0.000359846 5.80052e-06)
"s21" (0.999640 -5.80052e-06)
"s12" (0.999640 -5.80052e-06)
"s22" (0.000359846 5.80052e-06)
"freq" 213.796
"s11" (0.000359846 5.93563e-06)
"s21" (0.999640 -5.93563e-06)
"s12" (0.999640 -5.93563e-06)
"s22" (0.000359846 5.93563e-06)
"freq" 218.776
"s11" (0.000359846 6.07389e-06)
"s21" (0.999640 -6.07389e-06)
"s12" (0.999640 -6.07389e-06)
"s22" (0.000359846 6.07389e-06)
"freq" 223.872
"s11" (0.000359846 6.21537e-06)
"s21" (0.999640 -6.21537e-06)
"s12" (0.999640 -6.21537e-06)
"s22" (0.000359846 6.21537e-06)
"freq" 229.087
"s11" (0.000359846 6.36015e-06)
"s21" (0.999640 -6.36015e-06)
"s12" (0.999640 -6.36015e-06)
"s22" (0.000359846 6.36015e-06)
"freq" 234.423
"s11" (0.000359846 6.50829e-06)
"s21" (0.999640 -6.50829e-06)
"s12" (0.999640 -6.50829e-06)
"s22" (0.000359846 6.50829e-06)
"freq" 239.883
"s11" (0.000359846 6.65989e-06)
"s21" (0.999640 -6.65989e-06)
"s12" (0.999640 -6.65989e-06)
"s22" (0.000359846 6.65989e-06)
"freq" 245.471
"s11" (0.000359846 6.81502e-06)
"s21" (0.999640 -6.81502e-06)
"s12" (0.999640 -6.81502e-06)
"s22" (0.000359846 6.81502e-06)
"freq" 251.189
"s11" (0.000359846 6.97376e-06)
"s21" (0.999640 -6.97376e-06)
"s12" (0.999640 -6.97376e-06)
"s22" (0.000359846 6.97376e-06)
"freq" 257.040
"s11" (0.000359846 7.13620e-06)
"s21" (0.999640 -7.13620e-06)
"s12" (0.999640 -7.13620e-06)
"s22" (0.000359846 7.13620e-06)
"freq" 263.027
"s11" (0.000359846 7.30242e-06)
"s21" (0.999640 -7.30242e-06)
"s12" (0.999640 -7.30242e-06)
"s22" (0.000359846 7.30242e-06)
"freq" 269.153
"s11" (0.000359846 7.47252e-06)
"s21" (0.999640 -7.47252e-06)
"s12" (0.999640 -7.47252e-06)
"s22" (0.000359846 7.47252e-06)
"freq" 275.423
"s11" (0.000359846 7.64658e-06)
"s21" (0.999640 -7.64658e-06)
"s12" (0.999640 -7.64658e-06)
"s22" (0.000359846 7.64658e-06)
"freq" 281.838
"s11" (0.000359846 7.82469e-06)
"s21" (0.999640 -7.82469e-06)
"s12" (0.999640 -7.82469e-06)
"s22" (0.000359846 7.82469e-06)
"freq" 288.403
"s11" (0.000359846 8.00695e-06)
"s21" (0.999640 -8.00695e-06)
"s12" (0.999640 -8.00695e-06)
"s22" (0.000359846 8.00695e-06)
"freq" 295.121
"s11" (0.000359846 8.19345e-06)
"s21" (0.999640 -8.19345e-06)
"s12" (0.999640 -8.19345e-06)
"s22" (0.000359846 8.19345e-06)
"freq" 301.995
"s11" (0.000359846 8.38430e-06)
"s21" (0.999640 -8.38430e-06)
"s12" (0.999640 -8.38430e-06)
"s22" (0.000359846 8.38430e-06)
"freq" 309.030
"s11" (0.000359846 8.57960e-06)
"s21" (0.999640 -8.57960e-06)
"s12" (0.999640 -8.57960e-06)
"s22" (0.000359846 8.57960e-06)
"freq" 316.228
"s11" (0.000359846 8.77944e-06)
"s21" (0.999640 -8.77944e-06)
"s12" (0.999640 -8.77944e-06)
"s22" (0.000359846 8.77944e-06)
"freq" 323.594
"s11" (0.000359846 8.98394e-06)
"s21" (0.999640 -8.98394e-06)
"s12" (0.999640 -8.98394e-06)
"s22" (0.000359846 8.98394e-06)
"freq" 331.131
"s11" (0.000359846 9.19321e-06)
"s21" (0.999640 -9.19321e-06)
"s12" (0.999640 -9.19321e-06)
"s22" (0.000359846 9.19321e-06)
"freq" 338.844
"s11" (0.000359846 9.40734e-06)
"s21" (0.999640 -9.40734e-06)
"s12" (0.999640 -9.40734e-06)
"s22" (0.000359846 9.40734e-06)
"freq" 346.737
"s11" (0.000359846 9.62647e-06)
"s21" (0.999640 -9.62647e-06)
"s12" (0.999640 -9.62647e-06)
"s22" (0.000359846 9.62647e-06)
"freq" 354.813
"s11" (0.000359846 9.85070e-06)
"s21" (0.999640 -9.85070e-06)
"s12" (0.999640 -9.85070e-06)
"s22" (0.000359846 9.85070e-06)
"freq" 363.078
"s11" (0.000359846 1.00802e-05)
"s21" (0.999640 -1.00802e-05)
"s12" (0.999640 -1.00802e-05)
"s22" (0.000359846 1.00802e-05)
"freq" 371.535
"s11" (0.000359846 1.03149e-05)
"s21" (0.999640 -1.03149e-05)
"s12" (0.999640 -1.03149e-05)
"s22" (0.000359846 1.03149e-05)
"freq" 380.189
"s11" (0.000359846 1.05552e-05)
"s21" (0.999640 -1.05552e-05)
"s12" (0.999640 -1.05552e-05)
"s22" (0.000359846 1.05552e-05)
"freq" 389.045
"s11" (0.000359846 1.08011e-05)
"s21" (0.999640 -1.08011e-05)
"s12" (0.999640 -1.08011e-05)
"s22" (0.000359846 1.08011e-05)
"freq" 398.107
"s11" (0.000359846 1.10527e-05)
"s21" (0.999640 -1.10527e-05)
"s12" (0.999640 -1.10527e-05)
"s22" (0.000359846 1.10527e-05)
"freq" 407.380
"s11" (0.000359847 1.13101e-05)
"s21" (0.999640 -1.13101e-05)
"s12" (0.999640 -1.13101e-05)
"s22" (0.000359847 1.13101e-05)
"freq" 416.869
"s11" (0.000359847 1.15736e-05)
"s21" (0.999640 -1.15736e-05)
"s12" (0.999640 -1.15736e-05)
"s22" (0.000359847 1.15736e-05)
"freq" 426.580
"s11" (0.000359847 1.18431e-05)
"s21" (0.999640 -1.18431e-05)
"s12" (0.999640 -1.18431e-05)
"s22" (0.000359847 1.18431e-05)
"freq" 436.516
"s11" (0.000359847 1.21190e-05)
"s21" (0.999640 -1.21190e-05)
"s12" (0.999640 -1.21190e-05)
"s22" (0.000359847 1.21190e-05)
"freq" 446.684
"s11" (0.000359847 1.24013e-05)
"s21" (0.999640 -1.24013e-05)
"s12" (0.999640 -1.24013e-05)
"s22" (0.000359847 1.24013e-05)
"freq" 457.088
"s11" (0.000359847 1.26902e-05)
"s21" (0.999640 -1.26902e-05)
"s12" (0.999640 -1.26902e-05)
"s22" (0.000359847 1.26902e-05)
"freq" 467.735
"s11" (0.000359847 1.29858e-05)
"s21" (0.999640 -1.29858e-05)
"s12" (0.999640 -1.29858e-05)
"s22" (0.000359847 1.29858e-05)
"freq" 478.630
"s11" (0.000359847 1.32882e-05)
"s21" (0.999640 -1.32882e-05)
"s12" (0.999640 -1.32882e-05)
"s22" (0.000359847 1.32882e-05)
"freq" 489.779
"s11" (0.000359847 1.35978e-05)
"s21" (0.999640 -1.35978e-05)
"s12" (0.999640 -1.35978e-05)
"s22" (0.000359847 1.35978e-05)
"freq" 501.187
"s11" (0.000359847 1.39145e-05)
"s21" (0.999640 -1.39145e-05)
"s12" (0.999640 -1.39145e-05)
"s22" (0.000359847 1.39145e-05)
"freq" 512.861
"s11" (0.000359847 1.42386e-05)
"s21" (0.999640 -1.42386e-05)
"s12" (0.999640 -1.42386e-05)
"s22" (0.000359847 1.42386e-05)
"freq" 524.807
"s11" (0.000359847 1.45703e-05)
"s21" (0.999640 -1.45703e-05)
"s12" (0.999640 -1.45703e-05)
"s22" (0.000359847 1.45703e-05)
"freq" 537.032
"s11" (0.000359847 1.49096e-05)
"s21" (0.999640 -1.49096e-05)
"s12" (0.999640 -1.49096e-05)
"s22" (0.000359847 1.49096e-05)
"freq" 549.541
"s11" (0.000359847 1.52569e-05)
"s21" (0.999640 -1.52569e-05)
"s12" (0.999640 -1.52569e-05)
"s22" (0.000359847 1.52569e-05)
"freq" 562.341
"s11" (0.000359847 1.56123e-05)
"s21" (0.999640 -1.56123e-05)
"s12" (0.999640 -1.56123e-05)
"s22" (0.000359847 1.56123e-05)
"freq" 575.440
"s11" (0.000359847 1.59760e-05)
"s21" (0.999640 -1.59760e-05)
"s12" (0.999640 -1.59760e-05)
"s22" (0.000359847 1.59760e-05)
"freq" 588.844
"s11" (0.000359847 1.63481e-05)
"s21" (0.999640 -1.63481e-05)
"s12" (0.999640 -1.63481e-05)
"s22" (0.000359847 1.63481e-05)
"freq" 602.560
"s11" (0.000359847 1.67289e-05)
"s21" (0.999640 -1.67289e-05)
"s12" (0.999640 -1.67289e-05)
"s22" (0.000359847 1.67289e-05)
"freq" 616.595
"s11" (0.000359847 1.71186e-05)
"s21" (0.999640 -1.71186e-05)
"s12" (0.999640 -1.71186e-05)
"s22" (0.000359847 1.71186e-05)
"freq" 630.957
"s11" (0.000359847 1.75173e-05)
"s21" (0.999640 -1.75173e-05)
"s12" (0.999640 -1.75173e-05)
"s22" (0.000359847 1.75173e-05)
"freq" 645.654
"s11" (0.000359847 1.79253e-05)
"s21" (0.999640 -1.79253e-05)
"s12" (0.999640 -1.79253e-05)
"s22" (0.000359847 1.79253e-05)
"freq" 660.693
"s11" (0.000359847 1.83429e-05)
"s21" (0.999640 -1.83429e-05)
"s12" (0.999640 -1.83429e-05)
"s22" (0.000359847 1.83429e-05)
"freq" 676.083
"s11" (0.000359847 1.87701e-05)
"s21" (0.999640 -1.87701e-05)
"s12" (0.999640 -1.87701e-05)
"s22" (0.000359847 1.87701e-05)
"freq" 691.831
"s11" (0.000359847 1.92073e-05)
"s21" (0.999640 -1.92073e-05)
"s12" (0.999640 -1.92073e-05)
"s22" (0.000359847 1.92073e-05)
"freq" 707.946
"s11" (0.000359847 1.96547e-05)
"s21" (0.999640 -1.96547e-05)
"s12" (0.999640 -1.96547e-05)
"s22" (0.000359847 1.96547e-05)
"freq" 724.436
"s11" (0.000359847 2.01125e-05)
"s21" (0.999640 -2.01125e-05)
"s12" (0.999640 -2.01125e-05)
"s22" (0.000359847 2.01125e-05)
"freq" 741.310
"s11" (0.000359847 2.05810e-05)
"s21" (0.999640 -2.05810e-05)
"s12" (0.999640 -2.05810e-05)
"s22" (0.000359847 2.05810e-05)
"freq" 758.578
"s11" (0.000359847 2.10604e-05)
"s21" (0.999640 -2.10604e-05)
"s12" (0.999640 -2.10604e-05)
"s22" (0.000359847 2.10604e-05)
"freq" 776.247
"s11" (0.000359847 2.15510e-05)
"s21" (0.999640 -2.15510e-05)
"s12" (0.999640 -2.15510e-05)
"s22" (0.000359847 2.15510e-05)
"freq" 794.328
"s11" (0.000359847 2.20530e-05)
"s21" (0.999640 -2.20530e-05)
"s12" (0.999640 -2.20530e-05)
"s22" (0.000359847 2.20530e-05)
"freq" 812.831
"s11" (0.000359847 2.25666e-05)
"s21" (0.999640 -2.25666e-05)
"s12" (0.999640 -2.25666e-05)
"s22" (0.000359847 2.25666e-05)
"freq" 831.764
"s11" (0.000359847 2.30923e-05)
"s21" (0.999640 -2.30923e-05)
"s12" (0.999640 -2.30923e-05)
"s22" (0.000359847 2.30923e-05)
"freq" 851.138
"s11" (0.000359847 2.36302e-05)
"s21" (0.999640 -2.36302e-05)
"s12" (0.999640 -2.36302e-05)
"s22" (0.000359847 2.36302e-05)
"freq" 870.964
"s11" (0.000359847 2.41806e-05)
"s21" (0.999640 -2.41806e-05)
"s12" (0.999640 -2.41806e-05)
"s22" (0.000359847 2.41806e-05)
"freq" 891.251
"s11" (0.000359847 2.47438e-05)
"s21" (0.999640 -2.47438e-05)
"s12" (0.999640 -2.47438e-05)
"s22" (0.000359847 2.47438e-05)
"freq" 912.011
"s11" (0.000359847 2.53202e-05)
"s21" (0.999640 -2.53202e-05)
"s12" (0.999640 -2.53202e-05)
"s22" (0.000359847 2.53202e-05)
"freq" 933.254
"s11" (0.000359847 2.59100e-05)
"s21" (0.999640 -2.59100e-05)
"s12" (0.999640 -2.59100e-05)
"s22" (0.000359847 2.59100e-05)
"freq" 954.993
"s11" (0.000359847 2.65135e-05)
"s21" (0.999640 -2.65135e-05)
"s12" (0.999640 -2.65135e-05)
"s22" (0.000359847 2.65135e-05)
"freq" 977.237
"s11" (0.000359847 2.71311e-05)
"s21" (0.999640 -2.71311e-05)
"s12" (0.999640 -2.71311e-05)
"s22" (0.000359847 2.71311e-05)
"freq" 1000.00
"s11" (0.000359847 2.77630e-05)
"s21" (0.999640 -2.77630e-05)
"s12" (0.999640 -2.77630e-05)
"s22" (0.000359847 2.77630e-05)
"freq" 1023.29
"s11" (0.000359847 2.84097e-05)
"s21" (0.999640 -2.84097e-05)
"s12" (0.999640 -2.84097e-05)
"s22" (0.000359847 2.84097e-05)
"freq" 1047.13
"s11" (0.000359847 2.90715e-05)
"s21" (0.999640 -2.90715e-05)
"s12" (0.999640 -2.90715e-05)
"s22" (0.000359847 2.90715e-05)
"freq" 1071.52
"s11" (0.000359847 2.97486e-05)
"s21" (0.999640 -2.97486e-05)
"s12" (0.999640 -2.97486e-05)
"s22" (0.000359847 2.97486e-05)
"freq" 1096.48
"s11" (0.000359847 3.04416e-05)
"s21" (0.999640 -3.04416e-05)
"s12" (0.999640 -3.04416e-05)
"s22" (0.000359847 3.04416e-05)
"freq" 1122.02
"s11" (0.000359848 3.11506e-05)
"s21" (0.999640 -3.11506e-05)
"s12" (0.999640 -3.11506e-05)
"s22" (0.000359848 3.11506e-05)
"freq" 1148.15
"s11" (0.000359848 3.18762e-05)
"s21" (0.999640 -3.18762e-05)
"s12" (0.999640 -3.18762e-05)
"s22" (0.000359848 3.18762e-05)
"freq" 1174.90
"s11" (0.000359848 3.26187e-05)
"s21" (0.999640 -3.26187e-05)
"s12" (0.999640 -3.26187e-05)
"s22" (0.000359848 3.26187e-05)
"freq" 1202.26
"s11" (0.000359848 3.33785e-05)
"s21" (0.999640 -3.33785e-05)
"s12" (0.999640 -3.33785e-05)
"s22" (0.000359848 3.33785e-05)
"freq" 1230.27
"s11" (0.000359848 3.41560e-05)
"s21" (0.999640 -3.41560e-05)
"s12" (0.999640 -3.41560e-05)
"s22" (0.000359848 3.41560e-05)
"freq" 1258.93
"s11" (0.000359848 3.49516e-05)
"s21" (0.999640 -3.49516e-05)
"s12" (0.999640 -3.49516e-05)
"s22" (0.000359848 3.49516e-05)
"freq" 1288.25
"s11" (0.000359848 3.57657e-05)
"s21" (0.999640 -3.57657e-05)
"s12" (0.999640 -3.57657e-05)
"s22" (0.000359848 3.57657e-05)
"freq" 1318.26
"s11" (0.000359848 3.65988e-05)
"s21" (0.999640 -3.65988e-05)
"s12" (0.999640 -3.65988e-05)
"s22" (0.000359848 3.65988e-05)
"freq" 1348.96
"s11" (0.000359848 3.74513e-05)
"s21" (0.999640 -3.74513e-05)
"s12" (0.999640 -3.74513e-05)
"s22" (0.000359848 3.74513e-05)
"freq" 1380.38
"s11" (0.000359848 3.83237e-05)
"s21" (0.999640 -3.83237e-05)
"s12" (0.999640 -3.83237e-05)
"s22" (0.000359848 3.83237e-05)
"freq" 1412.54
"s11" (0.000359848 3.92163e-05)
"s21" (0.999640 -3.92163e-05)
"s12" (0.999640 -3.92163e-05)
"s22" (0.000359848 3.92163e-05)
"freq" 1445.44
"s11" (0.000359848 4.01298e-05)
"s21" (0.999640 -4.01298e-05)
"s12" (0.999640 -4.01298e-05)
"s22" (0.000359848 4.01298e-05)
"freq" 1479.11
"s11" (0.000359848 4.10645e-05)
"s21" (0.999640 -4.10645e-05)
"s12" (0.999640 -4.10645e-05)
"s22" (0.000359848 4.10645e-05)
"freq" 1513.56
"s11" (0.000359848 4.20211e-05)
"s21" (0.999640 -4.20211e-05)
"s12" (0.999640 -4.20211e-05)
"s22" (0.000359848 4.20211e-05)
"freq" 1548.82
"s11" (0.000359849 4.29999e-05)
"s21" (0.999640 -4.29999e-05)
"s12" (0.999640 -4.29999e-05)
"s22" (0.000359849 4.29999e-05)
"freq" 1584.89
"s11" (0.000359849 4.40015e-05)
"s21" (0.999640 -4.40015e-05)
"s12" (0.999640 -4.40015e-05)
"s22" (0.000359849 4.40015e-05)
"freq" 1621.81
"s11" (0.000359849 4.50264e-05)
"s21" (0.999640 -4.50264e-05)
"s12" (0.999640 -4.50264e-05)
"s22" (0.000359849 4.50264e-05)
"freq" 1659.59
"s11" (0.000359849 4.60752e-05)
"s21" (0.999640 -4.60752e-05)
"s12" (0.999640 -4.60752e-05)
"s22" (0.000359849 4.60752e-05)
"freq" 1698.24
"s11" (0.000359849 4.71484e-05)
"s21" (0.999640 -4.71484e-05)
"s12" (0.999640 -4.71484e-05)
"s22" (0.000359849 4.71484e-05)
"freq" 1737.80
"s11" (0.000359849 4.82466e-05)
"s21" (0.999640 -4.82466e-05)
"s12" (0.999640 -4.82466e-05)
"s22" (0.000359849 4.82466e-05)
"freq" 1778.28
"s11" (0.000359849 4.93704e-05)
"s21" (0.999640 -4.93704e-05)
"s12" (0.999640 -4.93704e-05)
"s22" (0.000359849 4.93704e-05)
"freq" 1819.70
"s11" (0.000359849 5.05204e-05)
"s21" (0.999640 -5.05204e-05)
"s12" (0.999640 -5.05204e-05)
"s22" (0.000359849 5.05204e-05)
"freq" 1862.09
"s11" (0.000359850 5.16972e-05)
"s21" (0.999640 -5.16972e-05)
"s12" (0.999640 -5.16972e-05)
"s22" (0.000359850 5.16972e-05)
"freq" 1905.46
"s11" (0.000359850 5.29014e-05)
"s21" (0.999640 -5.29014e-05)
"s12" (0.999640 -5.29014e-05)
"s22" (0.000359850 5.29014e-05)
"freq" 1949.84
"s11" (0.000359850 5.41336e-05)
"s21" (0.999640 -5.41336e-05)
"s12" (0.999640 -5.41336e-05)
"s22" (0.000359850 5.41336e-05)
"freq" 1995.26
"s11" (0.000359850 5.53946e-05)
"s21" (0.999640 -5.53946e-05)
"s12" (0.999640 -5.53946e-05)
"s22" (0.000359850 5.53946e-05)
"freq" 2041.74
"s11" (0.000359850 5.66849e-05)
"s21" (0.999640 -5.66849e-05)
"s12" (0.999640 -5.66849e-05)
"s22" (0.000359850 5.66849e-05)
"freq" 2089.30
"s11" (0.000359850 5.80052e-05)
"s21" (0.999640 -5.80052e-05)
"s12" (0.999640 -5.80052e-05)
"s22" (0.000359850 5.80052e-05)
"freq" 2137.96
"s11" (0.000359851 5.93563e-05)
"s21" (0.999640 -5.93563e-05)
"s12" (0.999640 -5.93563e-05)
"s22" (0.000359851 5.93563e-05)
"freq" 2187.76
"s11" (0.000359851 6.07389e-05)
"s21" (0.999640 -6.07389e-05)
"s12" (0.999640 -6.07389e-05)
"s22" (0.000359851 6.07389e-05)
"freq" 2238.72
"s11" (0.000359851 6.21537e-05)
"s21" (0.999640 -6.21537e-05)
"s12" (0.999640 -6.21537e-05)
"s22" (0.000359851 6.21537e-05)
"freq" 2290.87
"s11" (0.000359851 6.36015e-05)
"s21" (0.999640 -6.36015e-05)
"s12" (0.999640 -6.36015e-05)
"s22" (0.000359851 6.36015e-05)
"freq" 2344.23
"s11" (0.000359851 6.50829e-05)
"s21" (0.999640 -6.50829e-05)
"s12" (0.999640 -6.50829e-05)
"s22" (0.000359851 6.50829e-05)
"freq" 2398.83
"s11" (0.000359852 6.65989e-05)
"s21" (0.999640 -6.65989e-05)
"s12" (0.999640 -6.65989e-05)
"s22" (0.000359852 6.65989e-05)
"freq" 2454.71
"s11" (0.000359852 6.81502e-05)
"s21" (0.999640 -6.81502e-05)
"s12" (0.999640 -6.81502e-05)
"s22" (0.000359852 6.81502e-05)
"freq" 2511.89
"s11" (0.000359852 6.97376e-05)
"s21" (0.999640 -6.97376e-05)
"s12" (0.999640 -6.97376e-05)
"s22" (0.000359852 6.97376e-05)
"freq" 2570.40
"s11" (0.000359852 7.13620e-05)
"s21" (0.999640 -7.13620e-05)
"s12" (0.999640 -7.13620e-05)
"s22" (0.000359852 7.13620e-05)
"freq" 2630.27
"s11" (0.000359853 7.30242e-05)
"s21" (0.999640 -7.30242e-05)
"s12" (0.999640 -7.30242e-05)
"s22" (0.000359853 7.30242e-05)
"freq" 2691.53
"s11" (0.000359853 7.47252e-05)
"s21" (0.999640 -7.47252e-05)
"s12" (0.999640 -7.47252e-05)
"s22" (0.000359853 7.47252e-05)
"freq" 2754.23
"s11" (0.000359853 7.64658e-05)
"s21" (0.999640 -7.64658e-05)
"s12" (0.999640 -7.64658e-05)
"s22" (0.000359853 7.64658e-05)
"freq" 2818.38
"s11" (0.000359854 7.82469e-05)
"s21" (0.999640 -7.82469e-05)
"s12" (0.999640 -7.82469e-05)
"s22" (0.000359854 7.82469e-05)
"freq" 2884.03
"s11" (0.000359854 8.00695e-05)
"s21" (0.999640 -8.00695e-05)
"s12" (0.999640 -8.00695e-05)
"s22" (0.000359854 8.00695e-05)
"freq" 2951.21
"s11" (0.000359854 8.19345e-05)
"s21" (0.999640 -8.19345e-05)
"s12" (0.999640 -8.19345e-05)
"s22" (0.000359854 8.19345e-05)
"freq" 3019.95
"s11" (0.000359855 8.38430e-05)
"s21" (0.999640 -8.38430e-05)
"s12" (0.999640 -8.38430e-05)
"s22" (0.000359855 8.38430e-05)
"freq" 3090.30
"s11" (0.000359855 8.57960e-05)
"s21" (0.999640 -8.57960e-05)
"s12" (0.999640 -8.57960e-05)
"s22" (0.000359855 8.57960e-05)
"freq" 3162.28
"s11" (0.000359856 8.77944e-05)
"s21" (0.999640 -8.77944e-05)
"s12" (0.999640 -8.77944e-05)
"s22" (0.000359856 8.77944e-05)
"freq" 3235.94
"s11" (0.000359856 8.98394e-05)
"s21" (0.999640 -8.98394e-05)
"s12" (0.999640 -8.98394e-05)
"s22" (0.000359856 8.98394e-05)
"freq" 3311.31
"s11" (0.000359856 9.19321e-05)
"s21" (0.999640 -9.19321e-05)
"s12" (0.999640 -9.19321e-05)
"s22" (0.000359856 9.19321e-05)
"freq" 3388.44
"s11" (0.000359857 9.40734e-05)
"s21" (0.999640 -9.40734e-05)
"s12" (0.999640 -9.40734e-05)
"s22" (0.000359857 9.40734e-05)
"freq" 3467.37
"s11" (0.000359857 9.62647e-05)
"s21" (0.999640 -9.62647e-05)
"s12" (0.999640 -9.62647e-05)
"s22" (0.000359857 9.62647e-05)
"freq" 3548.13
"s11" (0.000359858 9.85070e-05)
"s21" (0.999640 -9.85070e-05)
"s12" (0.999640 -9.85070e-05)
"s22" (0.000359858 9.85070e-05)
"freq" 3630.78
"s11" (0.000359858 0.000100802)
"s21" (0.999640 -0.000100802)
"s12" (0.999640 -0.000100802)
"s22" (0.000359858 0.000100802)
"freq" 3715.35
"s11" (0.000359859 0.000103149)
"s21" (0.999640 -0.000103149)
"s12" (0.999640 -0.000103149)
"s22" (0.000359859 0.000103149)
"freq" 3801.89
"s11" (0.000359860 0.000105552)
"s21" (0.999640 -0.000105552)
"s12" (0.999640 -0.000105552)
"s22" (0.000359860 0.000105552)
"freq" 3890.45
"s11" (0.000359860 0.000108011)
"s21" (0.999640 -0.000108011)
"s12" (0.999640 -0.000108011)
"s22" (0.000359860 0.000108011)
"freq" 3981.07
"s11" (0.000359861 0.000110527)
"s21" (0.999640 -0.000110527)
"s12" (0.999640 -0.000110527)
"s22" (0.000359861 0.000110527)
"freq" 4073.80
"s11" (0.000359862 0.000113101)
"s21" (0.999640 -0.000113101)
"s12" (0.999640 -0.000113101)
"s22" (0.000359862 0.000113101)
"freq" 4168.69
"s11" (0.000359862 0.000115736)
"s21" (0.999640 -0.000115736)
"s12" (0.999640 -0.000115736)
"s22" (0.000359862 0.000115736)
"freq" 4265.80
"s11" (0.000359863 0.000118431)
"s21" (0.999640 -0.000118431)
"s12" (0.999640 -0.000118431)
"s22" (0.000359863 0.000118431)
"freq" 4365.16
"s11" (0.000359864 0.000121190)
"s21" (0.999640 -0.000121190)
"s12" (0.999640 -0.000121190)
"s22" (0.000359864 0.000121190)
"freq" 4466.84
"s11" (0.000359865 0.000124013)
"s21" (0.999640 -0.000124013)
"s12" (0.999640 -0.000124013)
"s22" (0.000359865 0.000124013)
"freq" 4570.88
"s11" (0.000359865 0.000126902)
"s21" (0.999640 -0.000126902)
"s12" (0.999640 -0.000126902)
"s22" (0.000359865 0.000126902)
"freq" 4677.35
"s11" (0.000359866 0.000129858)
"s21" (0.999640 -0.000129858)
"s12" (0.999640 -0.000129858)
"s22" (0.000359866 0.000129858)
"freq" 4786.30
"s11" (0.000359867 0.000132882)
"s21" (0.999640 -0.000132882)
"s12" (0.999640 -0.000132882)
"s22" (0.000359867 0.000132882)
"freq" 4897.79
"s11" (0.000359868 0.000135978)
"s21" (0.999640 -0.000135978)
"s12" (0.999640 -0.000135978)
"s22" (0.000359868 0.000135978)
"freq" 5011.87
"s11" (0.000359869 0.000139145)
"s21" (0.999640 -0.000139145)
"s12" (0.999640 -0.000139145)
"s22" (0.000359869 0.000139145)
"freq" 5128.61
"s11" (0.000359870 0.000142386)
"s21" (0.999640 -0.000142386)
"s12" (0.999640 -0.000142386)
"s22" (0.000359870 0.000142386)
"freq" 5248.07
"s11" (0.000359872 0.000145703)
"s21" (0.999640 -0.000145703)
"s12" (0.999640 -0.000145703)
"s22" (0.000359872 0.000145703)
"freq" 5370.32
"s11" (0.000359873 0.000149096)
"s21" (0.999640 -0.000149096)
"s12" (0.999640 -0.000149096)
"s22" (0.000359873 0.000149096)
"freq" 5495.41
"s11" (0.000359874 0.000152569)
"s21" (0.999640 -0.000152569)
"s12" (0.999640 -0.000152569)
"s22" (0.000359874 0.000152569)
"freq" 5623.41
"s11" (0.000359875 0.000156123)
"s21" (0.999640 -0.000156123)
"s12" (0.999640 -0.000156123)
"s22" (0.000359875 0.000156123)
"freq" 5754.40
"s11" (0.000359877 0.000159760)
"s21" (0.999640 -0.000159760)
"s12" (0.999640 -0.000159760)
"s22" (0.000359877 0.000159760)
"freq" 5888.44
"s11" (0.000359878 0.000163481)
"s21" (0.999640 -0.000163481)
"s12" (0.999640 -0.000163481)
"s22" (0.000359878 0.000163481)
"freq" 6025.60
"s11" (0.000359880 0.000167289)
"s21" (0.999640 -0.000167289)
"s12" (0.999640 -0.000167289)
"s22" (0.000359880 0.000167289)
"freq" 6165.95
"s11" (0.000359881 0.000171186)
"s21" (0.999640 -0.000171186)
"s12" (0.999640 -0.000171186)
"s22" (0.000359881 0.000171186)
"freq" 6309.57
"s11" (0.000359883 0.000175173)
"s21" (0.999640 -0.000175173)
"s12" (0.999640 -0.000175173)
"s22" (0.000359883 0.000175173)
"freq" 6456.54
"s11" (0.000359884 0.000179253)
"s21" (0.999640 -0.000179253)
"s12" (0.999640 -0.000179253)
"s22" (0.000359884 0.000179253)
"freq" 6606.93
"s11" (0.000359886 0.000183429)
"s21" (0.999640 -0.000183429)
"s12" (0.999640 -0.000183429)
"s22" (0.000359886 0.000183429)
"freq" 6760.83
"s11" (0.000359888 0.000187701)
"s21" (0.999640 -0.000187701)
"s12" (0.999640 -0.000187701)
"s22" (0.000359888 0.000187701)
"freq" 6918.31
"s11" (0.000359890 0.000192073)
"s21" (0.999640 -0.000192073)
"s12" (0.999640 -0.000192073)
"s22" (0.000359890 0.000192073)
"freq" 7079.46
"s11" (0.000359892 0.000196547)
"s21" (0.999640 -0.000196547)
"s12" (0.999640 -0.000196547)
"s22" (0.000359892 0.000196547)
"freq" 7244.36
"s11" (0.000359894 0.000201125)
"s21" (0.999640 -0.000201125)
"s12" (0.999640 -0.000201125)
"s22" (0.000359894 0.000201125)
"freq" 7413.10
"s11" (0.000359897 0.000205810)
"s21" (0.999640 -0.000205810)
"s12" (0.999640 -0.000205810)
"s22" (0.000359897 0.000205810)
"freq" 7585.78
"s11" (0.000359899 0.000210604)
"s21" (0.999640 -0.000210604)
"s12" (0.999640 -0.000210604)
"s22" (0.000359899 0.000210604)
"freq" 7762.47
"s11" (0.000359901 0.000215510)
"s21" (0.999640 -0.000215510)
"s12" (0.999640 -0.000215510)
"s22" (0.000359901 0.000215510)
"freq" 7943.28
"s11" (0.000359904 0.000220530)
"s21" (0.999640 -0.000220530)
"s12" (0.999640 -0.000220530)
"s22" (0.000359904 0.000220530)
"freq" 8128.31
"s11" (0.000359907 0.000225666)
"s21" (0.999640 -0.000225666)
"s12" (0.999640 -0.000225666)
"s22" (0.000359907 0.000225666)
"freq" 8317.64
"s11" (0.000359910 0.000230923)
"s21" (0.999640 -0.000230923)
"s12" (0.999640 -0.000230923)
"s22" (0.000359910 0.000230923)
"freq" 8511.38
"s11" (0.000359913 0.000236302)
"s21" (0.999640 -0.000236302)
"s12" (0.999640 -0.000236302)
"s22" (0.000359913 0.000236302)
"freq" 8709.64
"s11" (0.000359916 0.000241806)
"s21" (0.999640 -0.000241806)
"s12" (0.999640 -0.000241806)
"s22" (0.000359916 0.000241806)
"freq" 8912.51
"s11" (0.000359919 0.000247438)
"s21" (0.999640 -0.000247438)
"s12" (0.999640 -0.000247438)
"s22" (0.000359919 0.000247438)
"freq" 9120.11
"s11" (0.000359922 0.000253202)
"s21" (0.999640 -0.000253202)
"s12" (0.999640 -0.000253202)
"s22" (0.000359922 0.000253202)
"freq" 9332.54
"s11" (0.000359926 0.000259100)
"s21" (0.999640 -0.000259100)
"s12" (0.999640 -0.000259100)
"s22" (0.000359926 0.000259100)
"freq" 9549.93
"s11" (0.000359930 0.000265135)
"s21" (0.999640 -0.000265135)
"s12" (0.999640 -0.000265135)
"s22" (0.000359930 0.000265135)
"freq" 9772.37
"s11" (0.000359934 0.000271311)
"s21" (0.999640 -0.000271311)
"s12" (0.999640 -0.000271311)
"s22" (0.000359934 0.000271311)
"freq" 10000.0
"s11" (0.000359938 0.000277630)
"s21" (0.999640 -0.000277630)
"s12" (0.999640 -0.000277630)
"s22" (0.000359938 0.000277630)
"freq" 10232.9
"s11" (0.000359942 0.000284097)
"s21" (0.999640 -0.000284097)
"s12" (0.999640 -0.000284097)
"s22" (0.000359942 0.000284097)
"freq" 10471.3
"s11" (0.000359947 0.000290715)
"s21" (0.999640 -0.000290715)
"s12" (0.999640 -0.000290715)
"s22" (0.000359947 0.000290715)
"freq" 10715.2
"s11" (0.000359951 0.000297486)
"s21" (0.999640 -0.000297486)
"s12" (0.999640 -0.000297486)
"s22" (0.000359951 0.000297486)
"freq" 10964.8
"s11" (0.000359956 0.000304416)
"s21" (0.999640 -0.000304416)
"s12" (0.999640 -0.000304416)
"s22" (0.000359956 0.000304416)
"freq" 11220.2
"s11" (0.000359962 0.000311506)
"s21" (0.999640 -0.000311506)
"s12" (0.999640 -0.000311506)
"s22" (0.000359962 0.000311506)
"freq" 11481.5
"s11" (0.000359967 0.000318762)
"s21" (0.999640 -0.000318762)
"s12" (0.999640 -0.000318762)
"s22" (0.000359967 0.000318762)
"freq" 11749.0
"s11" (0.000359973 0.000326187)
"s21" (0.999640 -0.000326187)
"s12" (0.999640 -0.000326187)
"s22" (0.000359973 0.000326187)
"freq" 12022.6
"s11" (0.000359979 0.000333785)
"s21" (0.999640 -0.000333785)
"s12" (0.999640 -0.000333785)
"s22" (0.000359979 0.000333785)
"freq" 12302.7
"s11" (0.000359985 0.000341560)
"s21" (0.999640 -0.000341560)
"s12" (0.999640 -0.000341560)
"s22" (0.000359985 0.000341560)
"freq" 12589.3
"s11" (0.000359991 0.000349516)
"s21" (0.999640 -0.000349516)
"s12" (0.999640 -0.000349516)
"s22" (0.000359991 0.000349516)
"freq" 12882.5